Curcumin on GO nanoflake, explicit water
13949
    1GOFLA   C1    1   2.773   1.382   1.195
    1GOFLA   C2    2   2.647   1.595   1.200
    1GOFLA   C3    3   2.522   1.808   1.192
    1GOFLA   C4    4   2.397   2.021   1.198
    1GOFLA   C5    5   2.276   2.235   1.204
    1GOFLA   C6    6   2.160   2.447   1.230
    1GOFLA   C7    7   2.032   2.659   1.208
    1GOFLA   C8    8   1.912   2.871   1.196
    1GOFLA   C9    9   1.786   3.083   1.195
    1GOFLA  C10   10   1.662   3.297   1.192
    1GOFLA  C11   11   1.541   3.513   1.193
    1GOFLA  C12   12   1.418   3.724   1.214
    1GOFLA  C13   13   1.295   3.937   1.201
    1GOFLA  C14   14   2.896   1.309   1.190
    1GOFLA  C15   15   3.021   1.377   1.193
    1GOFLA  C16   16   2.770   1.524   1.202
    1GOFLA  C17   17   2.893   1.595   1.199
    1GOFLA  C18   18   2.645   1.737   1.193
    1GOFLA  C19   19   2.769   1.807   1.195
    1GOFLA  C20   20   2.520   1.950   1.193
    1GOFLA  C21   21   2.644   2.020   1.190
    1GOFLA  C22   22   2.398   2.164   1.205
    1GOFLA  C23   23   2.523   2.233   1.202
    1GOFLA  C24   24   2.281   2.377   1.217
    1GOFLA  C25   25   2.403   2.448   1.203
    1GOFLA  C26   26   2.155   2.589   1.223
    1GOFLA  C27   27   2.278   2.661   1.213
    1GOFLA  C28   28   2.035   2.801   1.199
    1GOFLA  C29   29   2.157   2.874   1.197
    1GOFLA  C30   30   1.910   3.013   1.192
    1GOFLA  C31   31   2.033   3.085   1.192
    1GOFLA  C32   32   1.785   3.226   1.196
    1GOFLA  C33   33   1.908   3.297   1.199
    1GOFLA  C34   34   1.663   3.440   1.188
    1GOFLA  C35   35   1.786   3.510   1.196
    1GOFLA  C36   36   1.541   3.654   1.211
    1GOFLA  C37   37   1.664   3.724   1.201
    1GOFLA  C38   38   1.418   3.865   1.197
    1GOFLA  C39   39   1.541   3.936   1.200
    1GOFLA  C40   40   1.297   4.079   1.213
    1GOFLA  C41   41   1.419   4.148   1.205
    1GOFLA  C42   42   3.143   1.302   1.194
    1GOFLA  C43   43   3.264   1.376   1.207
    1GOFLA  C44   44   3.015   1.521   1.193
    1GOFLA  C45   45   3.140   1.590   1.192
    1GOFLA  C46   46   2.893   1.736   1.188
    1GOFLA  C47   47   3.020   1.802   1.176
    1GOFLA  C48   48   2.766   1.949   1.186
    1GOFLA  C49   49   2.891   2.020   1.190
    1GOFLA  C50   50   2.645   2.162   1.194
    1GOFLA  C51   51   2.770   2.232   1.192
    1GOFLA  C52   52   2.524   2.376   1.202
    1GOFLA  C53   53   2.646   2.445   1.203
    1GOFLA  C54   54   2.401   2.590   1.204
    1GOFLA  C55   55   2.523   2.661   1.201
    1GOFLA  C56   56   2.279   2.803   1.197
    1GOFLA  C57   57   2.401   2.873   1.182
    1GOFLA  C58   58   2.156   3.016   1.189
    1GOFLA  C59   59   2.279   3.085   1.192
    1GOFLA  C60   60   2.032   3.227   1.195
    1GOFLA  C61   61   2.155   3.297   1.200
    1GOFLA  C62   62   1.909   3.438   1.199
    1GOFLA  C63   63   2.032   3.508   1.195
    1GOFLA  C64   64   1.787   3.652   1.197
    1GOFLA  C65   65   1.909   3.723   1.203
    1GOFLA  C66   66   1.663   3.865   1.195
    1GOFLA  C67   67   1.786   3.936   1.207
    1GOFLA  C68   68   1.542   4.078   1.202
    1GOFLA  C69   69   1.665   4.150   1.202
    1GOFLA  C70   70   3.388   1.306   1.211
    1GOFLA  C71   71   3.509   1.379   1.200
    1GOFLA  C72   72   3.262   1.519   1.203
    1GOFLA  C73   73   3.385   1.591   1.202
    1GOFLA  C74   74   3.141   1.732   1.188
    1GOFLA  C75   75   3.260   1.803   1.218
    1GOFLA  C76   76   3.017   1.947   1.186
    1GOFLA  C77   77   3.141   2.017   1.194
    1GOFLA  C78   78   2.893   2.161   1.201
    1GOFLA  C79   79   3.018   2.230   1.203
    1GOFLA  C80   80   2.772   2.373   1.197
    1GOFLA  C81   81   2.898   2.442   1.192
    1GOFLA  C82   82   2.644   2.590   1.194
    1GOFLA  C83   83   2.768   2.657   1.199
    1GOFLA  C84   84   2.523   2.802   1.187
    1GOFLA  C85   85   2.646   2.872   1.182
    1GOFLA  C86   86   2.402   3.015   1.183
    1GOFLA  C87   87   2.525   3.086   1.180
    1GOFLA  C88   88   2.279   3.228   1.201
    1GOFLA  C89   89   2.401   3.299   1.197
    1GOFLA  C90   90   2.155   3.438   1.190
    1GOFLA  C91   91   2.278   3.510   1.196
    1GOFLA  C92   92   2.031   3.650   1.198
    1GOFLA  C93   93   2.153   3.719   1.182
    1GOFLA  C94   94   1.909   3.864   1.210
    1GOFLA  C95   95   2.033   3.935   1.202
    1GOFLA  C96   96   1.788   4.078   1.203
    1GOFLA  C97   97   1.911   4.147   1.182
    1GOFLA  C98   98   3.633   1.308   1.199
    1GOFLA  C99   99   3.754   1.381   1.192
    1GOFLA C100  100   3.509   1.521   1.193
    1GOFLA C101  101   3.631   1.593   1.186
    1GOFLA C102  102   3.384   1.734   1.210
    1GOFLA C103  103   3.507   1.805   1.199
    1GOFLA C104  104   3.260   1.947   1.227
    1GOFLA C105  105   3.384   2.018   1.212
    1GOFLA C106  106   3.140   2.159   1.202
    1GOFLA C107  107   3.263   2.232   1.201
    1GOFLA C108  108   3.020   2.372   1.192
    1GOFLA C109  109   3.141   2.445   1.176
    1GOFLA C110  110   2.894   2.584   1.200
    1GOFLA C111  111   3.015   2.659   1.195
    1GOFLA C112  112   2.768   2.803   1.190
    1GOFLA C113  113   2.890   2.877   1.196
    1GOFLA C114  114   2.646   3.014   1.186
    1GOFLA C115  115   2.767   3.087   1.196
    1GOFLA C116  116   2.525   3.229   1.189
    1GOFLA C117  117   2.647   3.301   1.203
    1GOFLA C118  118   2.401   3.441   1.202
    1GOFLA C119  119   2.524   3.511   1.194
    1GOFLA C120  120   2.278   3.652   1.195
    1GOFLA C121  121   2.399   3.725   1.188
    1GOFLA C122  122   2.155   3.864   1.191
    1GOFLA C123  123   2.278   3.942   1.199
    1GOFLA C124  124   2.034   4.078   1.198
    1GOFLA C125  125   2.156   4.151   1.213
    1GOFLA C126  126   3.877   1.311   1.177
    1GOFLA C127  127   3.998   1.380   1.202
    1GOFLA C128  128   3.754   1.523   1.184
    1GOFLA C129  129   3.878   1.593   1.192
    1GOFLA C130  130   3.629   1.734   1.192
    1GOFLA C131  131   3.752   1.803   1.205
    1GOFLA C132  132   3.508   1.947   1.208
    1GOFLA C133  133   3.632   2.017   1.205
    1GOFLA C134  134   3.385   2.160   1.197
    1GOFLA C135  135   3.509   2.230   1.190
    1GOFLA C136  136   3.264   2.374   1.182
    1GOFLA C137  137   3.388   2.444   1.192
    1GOFLA C138  138   3.139   2.589   1.182
    1GOFLA C139  139   3.264   2.657   1.195
    1GOFLA C140  140   3.011   2.804   1.196
    1GOFLA C141  141   3.136   2.873   1.192
    1GOFLA C142  142   2.890   3.019   1.196
    1GOFLA C143  143   3.014   3.088   1.187
    1GOFLA C144  144   2.772   3.232   1.206
    1GOFLA C145  145   2.896   3.305   1.201
    1GOFLA C146  146   2.643   3.442   1.221
    1GOFLA C147  147   2.768   3.511   1.210
    1GOFLA C148  148   2.523   3.653   1.195
    1GOFLA C149  149   2.646   3.724   1.202
    1GOFLA C150  150   2.399   3.867   1.205
    1GOFLA C151  151   2.521   3.936   1.195
    1GOFLA C152  152   2.282   4.084   1.216
    1GOFLA C153  153   2.404   4.153   1.198
    1GOFLA C154  154   4.121   1.306   1.201
    1GOFLA C155  155   4.246   1.375   1.197
    1GOFLA C156  156   4.001   1.522   1.207
    1GOFLA C157  157   4.124   1.593   1.200
    1GOFLA C158  158   3.877   1.735   1.196
    1GOFLA C159  159   4.002   1.806   1.203
    1GOFLA C160  160   3.754   1.946   1.205
    1GOFLA C161  161   3.881   2.019   1.209
    1GOFLA C162  162   3.631   2.159   1.200
    1GOFLA C163  163   3.754   2.230   1.202
    1GOFLA C164  164   3.510   2.371   1.200
    1GOFLA C165  165   3.634   2.439   1.221
    1GOFLA C166  166   3.386   2.587   1.193
    1GOFLA C167  167   3.507   2.660   1.201
    1GOFLA C168  168   3.262   2.802   1.192
    1GOFLA C169  169   3.382   2.875   1.198
    1GOFLA C170  170   3.137   3.016   1.183
    1GOFLA C171  171   3.262   3.085   1.186
    1GOFLA C172  172   3.016   3.231   1.192
    1GOFLA C173  173   3.139   3.299   1.197
    1GOFLA C174  174   2.896   3.446   1.200
    1GOFLA C175  175   3.021   3.513   1.201
    1GOFLA C176  176   2.769   3.653   1.206
    1GOFLA C177  177   2.894   3.724   1.206
    1GOFLA C178  178   2.646   3.865   1.200
    1GOFLA C179  179   2.772   3.937   1.208
    1GOFLA C180  180   2.526   4.079   1.195
    1GOFLA C181  181   2.650   4.146   1.218
    1GOFLA C182  182   4.369   1.305   1.177
    1GOFLA C183  183   4.491   1.378   1.188
    1GOFLA C184  184   4.247   1.519   1.211
    1GOFLA C185  185   4.369   1.592   1.199
    1GOFLA C186  186   4.124   1.735   1.183
    1GOFLA C187  187   4.247   1.806   1.196
    1GOFLA C188  188   4.008   1.949   1.211
    1GOFLA C189  189   4.126   2.015   1.168
    1GOFLA C190  190   3.876   2.161   1.218
    1GOFLA C191  191   4.000   2.231   1.201
    1GOFLA C192  192   3.755   2.371   1.200
    1GOFLA C193  193   3.879   2.441   1.197
    1GOFLA C194  194   3.629   2.581   1.208
    1GOFLA C195  195   3.753   2.652   1.210
    1GOFLA C196  196   3.502   2.806   1.201
    1GOFLA C197  197   3.629   2.872   1.194
    1GOFLA C198  198   3.385   3.016   1.196
    1GOFLA C199  199   3.509   3.085   1.212
    1GOFLA C200  200   3.263   3.227   1.199
    1GOFLA C201  201   3.390   3.297   1.218
    1GOFLA C202  202   3.142   3.441   1.203
    1GOFLA C203  203   3.266   3.512   1.207
    1GOFLA C204  204   3.018   3.654   1.207
    1GOFLA C205  205   3.140   3.726   1.199
    1GOFLA C206  206   2.895   3.866   1.212
    1GOFLA C207  207   3.017   3.939   1.203
    1GOFLA C208  208   2.775   4.080   1.203
    1GOFLA C209  209   2.896   4.152   1.204
    1GOFLA C210  210   4.616   1.310   1.188
    1GOFLA C211  211   4.740   1.379   1.196
    1GOFLA C212  212   4.491   1.521   1.189
    1GOFLA C213  213   4.615   1.591   1.194
    1GOFLA C214  214   4.368   1.734   1.198
    1GOFLA C215  215   4.492   1.804   1.197
    1GOFLA C216  216   4.247   1.948   1.195
    1GOFLA C217  217   4.371   2.018   1.190
    1GOFLA C218  218   4.126   2.159   1.187
    1GOFLA C219  219   4.249   2.231   1.191
    1GOFLA C220  220   4.002   2.372   1.202
    1GOFLA C221  221   4.125   2.443   1.214
    1GOFLA C222  222   3.873   2.582   1.193
    1GOFLA C223  223   3.993   2.652   1.216
    1GOFLA C224  224   3.753   2.797   1.195
    1GOFLA C225  225   3.878   2.867   1.184
    1GOFLA C226  226   3.631   3.013   1.195
    1GOFLA C227  227   3.756   3.079   1.192
    1GOFLA C228  228   3.509   3.226   1.187
    1GOFLA C229  229   3.630   3.300   1.202
    1GOFLA C230  230   3.390   3.442   1.221
    1GOFLA C231  231   3.508   3.515   1.190
    1GOFLA C232  232   3.263   3.657   1.203
    1GOFLA C233  233   3.387   3.731   1.208
    1GOFLA C234  234   3.139   3.868   1.193
    1GOFLA C235  235   3.262   3.940   1.207
    1GOFLA C236  236   3.019   4.081   1.204
    1GOFLA C237  237   3.141   4.153   1.202
    1GOFLA C238  238   4.861   1.307   1.178
    1GOFLA C239  239   4.984   1.377   1.199
    1GOFLA C240  240   4.739   1.521   1.194
    1GOFLA C241  241   4.860   1.592   1.174
    1GOFLA C242  242   4.615   1.733   1.194
    1GOFLA C243  243   4.739   1.804   1.203
    1GOFLA C244  244   4.493   1.946   1.198
    1GOFLA C245  245   4.616   2.017   1.206
    1GOFLA C246  246   4.372   2.161   1.192
    1GOFLA C247  247   4.495   2.232   1.198
    1GOFLA C248  248   4.249   2.373   1.203
    1GOFLA C249  249   4.373   2.445   1.190
    1GOFLA C250  250   4.118   2.586   1.212
    1GOFLA C251  251   4.246   2.657   1.208
    1GOFLA C252  252   3.998   2.795   1.204
    1GOFLA C253  253   4.122   2.873   1.212
    1GOFLA C254  254   3.878   3.009   1.199
    1GOFLA C255  255   4.001   3.083   1.189
    1GOFLA C256  256   3.754   3.223   1.208
    1GOFLA C257  257   3.879   3.294   1.213
    1GOFLA C258  258   3.628   3.444   1.187
    1GOFLA C259  259   3.753   3.514   1.207
    1GOFLA C260  260   3.509   3.658   1.200
    1GOFLA C261  261   3.632   3.728   1.207
    1GOFLA C262  262   3.386   3.872   1.210
    1GOFLA C263  263   3.510   3.940   1.195
    1GOFLA C264  264   3.264   4.082   1.214
    1GOFLA C265  265   3.388   4.152   1.207
    1GOFLA C266  266   5.108   1.308   1.194
    1GOFLA C267  267   5.229   1.377   1.220
    1GOFLA C268  268   4.983   1.519   1.200
    1GOFLA C269  269   5.108   1.592   1.211
    1GOFLA C270  270   4.861   1.731   1.207
    1GOFLA C271  271   4.984   1.803   1.207
    1GOFLA C272  272   4.739   1.946   1.210
    1GOFLA C273  273   4.863   2.016   1.212
    1GOFLA C274  274   4.616   2.159   1.202
    1GOFLA C275  275   4.740   2.228   1.214
    1GOFLA C276  276   4.497   2.374   1.193
    1GOFLA C277  277   4.622   2.442   1.195
    1GOFLA C278  278   4.371   2.588   1.188
    1GOFLA C279  279   4.496   2.658   1.180
    1GOFLA C280  280   4.246   2.801   1.213
    1GOFLA C281  281   4.370   2.871   1.184
    1GOFLA C282  282   4.125   3.018   1.205
    1GOFLA C283  283   4.248   3.086   1.186
    1GOFLA C284  284   4.000   3.225   1.192
    1GOFLA C285  285   4.123   3.296   1.192
    1GOFLA C286  286   3.878   3.439   1.209
    1GOFLA C287  287   4.001   3.509   1.208
    1GOFLA C288  288   3.754   3.655   1.210
    1GOFLA C289  289   3.878   3.723   1.214
    1GOFLA C290  290   3.634   3.870   1.211
    1GOFLA C291  291   3.758   3.938   1.205
    1GOFLA C292  292   3.511   4.082   1.184
    1GOFLA C293  293   3.635   4.152   1.181
    1GOFLA C294  294   5.352   1.306   1.214
    1GOFLA C295  295   5.474   1.377   1.197
    1GOFLA C296  296   5.229   1.519   1.201
    1GOFLA C297  297   5.351   1.591   1.189
    1GOFLA C298  298   5.108   1.734   1.223
    1GOFLA C299  299   5.229   1.805   1.206
    1GOFLA C300  300   4.985   1.945   1.195
    1GOFLA C301  301   5.108   2.017   1.197
    1GOFLA C302  302   4.863   2.158   1.216
    1GOFLA C303  303   4.986   2.230   1.207
    1GOFLA C304  304   4.743   2.370   1.211
    1GOFLA C305  305   4.864   2.442   1.190
    1GOFLA C306  306   4.621   2.585   1.184
    1GOFLA C307  307   4.743   2.656   1.185
    1GOFLA C308  308   4.495   2.800   1.182
    1GOFLA C309  309   4.620   2.870   1.182
    1GOFLA C310  310   4.369   3.014   1.180
    1GOFLA C311  311   4.491   3.087   1.190
    1GOFLA C312  312   4.247   3.227   1.195
    1GOFLA C313  313   4.369   3.298   1.202
    1GOFLA C314  314   4.122   3.438   1.188
    1GOFLA C315  315   4.246   3.508   1.189
    1GOFLA C316  316   4.000   3.651   1.202
    1GOFLA C317  317   4.124   3.721   1.205
    1GOFLA C318  318   3.880   3.865   1.207
    1GOFLA C319  319   4.003   3.934   1.198
    1GOFLA C320  320   3.758   4.080   1.192
    1GOFLA C321  321   3.882   4.149   1.175
    1GOFLA C322  322   5.597   1.305   1.191
    1GOFLA C323  323   5.719   1.377   1.194
    1GOFLA C324  324   5.473   1.520   1.192
    1GOFLA C325  325   5.594   1.593   1.199
    1GOFLA C326  326   5.352   1.733   1.196
    1GOFLA C327  327   5.475   1.806   1.195
    1GOFLA C328  328   5.230   1.947   1.214
    1GOFLA C329  329   5.353   2.018   1.199
    1GOFLA C330  330   5.108   2.159   1.202
    1GOFLA C331  331   5.231   2.229   1.209
    1GOFLA C332  332   4.986   2.371   1.190
    1GOFLA C333  333   5.109   2.441   1.196
    1GOFLA C334  334   4.865   2.585   1.190
    1GOFLA C335  335   4.988   2.657   1.193
    1GOFLA C336  336   4.743   2.797   1.186
    1GOFLA C337  337   4.865   2.871   1.187
    1GOFLA C338  338   4.614   3.015   1.189
    1GOFLA C339  339   4.738   3.086   1.196
    1GOFLA C340  340   4.491   3.229   1.198
    1GOFLA C341  341   4.615   3.300   1.199
    1GOFLA C342  342   4.370   3.440   1.202
    1GOFLA C343  343   4.493   3.511   1.200
    1GOFLA C344  344   4.245   3.650   1.192
    1GOFLA C345  345   4.367   3.720   1.207
    1GOFLA C346  346   4.126   3.863   1.194
    1GOFLA C347  347   4.250   3.932   1.202
    1GOFLA C348  348   4.004   4.076   1.183
    1GOFLA C349  349   4.128   4.145   1.195
    1GOFLA C350  350   5.845   1.308   1.192
    1GOFLA C351  351   5.970   1.377   1.195
    1GOFLA C352  352   5.714   1.520   1.201
    1GOFLA C353  353   5.841   1.592   1.203
    1GOFLA C354  354   5.596   1.735   1.199
    1GOFLA C355  355   5.719   1.806   1.201
    1GOFLA C356  356   5.477   1.948   1.196
    1GOFLA C357  357   5.599   2.019   1.213
    1GOFLA C358  358   5.354   2.159   1.204
    1GOFLA C359  359   5.477   2.231   1.203
    1GOFLA C360  360   5.231   2.371   1.208
    1GOFLA C361  361   5.355   2.443   1.209
    1GOFLA C362  362   5.109   2.584   1.186
    1GOFLA C363  363   5.233   2.653   1.179
    1GOFLA C364  364   4.988   2.800   1.189
    1GOFLA C365  365   5.110   2.871   1.200
    1GOFLA C366  366   4.861   3.013   1.205
    1GOFLA C367  367   4.984   3.085   1.203
    1GOFLA C368  368   4.737   3.230   1.195
    1GOFLA C369  369   4.858   3.304   1.185
    1GOFLA C370  370   4.616   3.442   1.197
    1GOFLA C371  371   4.739   3.515   1.198
    1GOFLA C372  372   4.492   3.653   1.203
    1GOFLA C373  373   4.614   3.727   1.201
    1GOFLA C374  374   4.371   3.861   1.202
    1GOFLA C375  375   4.493   3.941   1.203
    1GOFLA C376  376   4.251   4.075   1.199
    1GOFLA C377  377   4.371   4.150   1.211
    1GOFLA C378  378   6.094   1.307   1.198
    1GOFLA C379  379   6.215   1.381   1.206
    1GOFLA C380  380   5.967   1.521   1.198
    1GOFLA C381  381   6.088   1.592   1.200
    1GOFLA C382  382   5.842   1.734   1.198
    1GOFLA C383  383   5.966   1.805   1.191
    1GOFLA C384  384   5.721   1.948   1.206
    1GOFLA C385  385   5.845   2.019   1.203
    1GOFLA C386  386   5.600   2.161   1.204
    1GOFLA C387  387   5.723   2.231   1.205
    1GOFLA C388  388   5.476   2.372   1.205
    1GOFLA C389  389   5.599   2.443   1.204
    1GOFLA C390  390   5.355   2.584   1.196
    1GOFLA C391  391   5.477   2.658   1.197
    1GOFLA C392  392   5.232   2.793   1.200
    1GOFLA C393  393   5.351   2.870   1.188
    1GOFLA C394  394   5.107   3.015   1.196
    1GOFLA C395  395   5.229   3.085   1.211
    1GOFLA C396  396   4.980   3.231   1.205
    1GOFLA C397  397   5.106   3.298   1.193
    1GOFLA C398  398   4.862   3.445   1.198
    1GOFLA C399  399   4.987   3.514   1.192
    1GOFLA C400  400   4.738   3.656   1.197
    1GOFLA C401  401   4.862   3.726   1.194
    1GOFLA C402  402   4.615   3.870   1.198
    1GOFLA C403  403   4.738   3.939   1.217
    1GOFLA C404  404   4.496   4.085   1.200
    1GOFLA C405  405   4.619   4.154   1.221
    1GOFLA C406  406   6.211   1.523   1.203
    1GOFLA C407  407   6.089   1.734   1.192
    1GOFLA C408  408   5.967   1.947   1.194
    1GOFLA C409  409   5.845   2.161   1.204
    1GOFLA C410  410   5.722   2.373   1.208
    1GOFLA C411  411   5.599   2.585   1.201
    1GOFLA C412  412   5.474   2.801   1.195
    1GOFLA C413  413   5.351   3.012   1.207
    1GOFLA C414  414   5.228   3.228   1.220
    1GOFLA C415  415   5.106   3.439   1.213
    1GOFLA C416  416   4.984   3.656   1.169
    1GOFLA C417  417   4.860   3.869   1.200
    1GOFLA C418  418   4.740   4.081   1.217
    1GOFLA H419  419   2.680   1.326   1.194
    1GOFLA H420  420   2.553   1.540   1.196
    1GOFLA H421  421   2.429   1.753   1.201
    1GOFLA H422  422   2.304   1.966   1.205
    1GOFLA H423  423   2.181   2.182   1.208
    1GOFLA H424  424   2.075   2.384   1.215
    1GOFLA H425  425   1.936   2.609   1.206
    1GOFLA H426  426   1.829   2.819   1.151
    1GOFLA H427  427   1.692   3.030   1.205
    1GOFLA H428  428   1.568   3.243   1.188
    1GOFLA H429  429   1.451   3.467   1.153
    1GOFLA H430  430   1.325   3.668   1.200
    1GOFLA H431  431   1.200   3.885   1.204
    1GOFLA H432  432   2.892   1.201   1.201
    1GOFLA H433  433   1.205   4.137   1.209
    1GOFLA H434  434   1.417   4.257   1.214
    1GOFLA H435  435   3.140   1.193   1.188
    1GOFLA H436  436   1.667   4.258   1.205
    1GOFLA H437  437   3.389   1.197   1.206
    1GOFLA H438  438   1.910   4.255   1.166
    1GOFLA H439  439   3.634   1.200   1.206
    1GOFLA H440  440   2.154   4.259   1.212
    1GOFLA H441  441   3.876   1.203   1.186
    1GOFLA H442  442   2.407   4.262   1.204
    1GOFLA H443  443   4.119   1.197   1.195
    1GOFLA H444  444   2.652   4.254   1.232
    1GOFLA H445  445   4.371   1.198   1.194
    1GOFLA H446  446   2.895   4.260   1.206
    1GOFLA H447  447   4.617   1.202   1.187
    1GOFLA H448  448   3.140   4.262   1.204
    1GOFLA H449  449   4.860   1.199   1.187
    1GOFLA H450  450   3.388   4.259   1.223
    1GOFLA H451  451   5.108   1.199   1.189
    1GOFLA H452  452   3.636   4.259   1.202
    1GOFLA H453  453   5.351   1.198   1.195
    1GOFLA H454  454   3.881   4.257   1.164
    1GOFLA H455  455   5.598   1.197   1.206
    1GOFLA H456  456   4.129   4.254   1.201
    1GOFLA H457  457   5.845   1.199   1.200
    1GOFLA H458  458   4.364   4.256   1.230
    1GOFLA H459  459   6.094   1.198   1.204
    1GOFLA H460  460   6.311   1.331   1.197
    1GOFLA H461  461   4.622   4.261   1.202
    1GOFLA H462  462   6.300   1.584   1.208
    1GOFLA H463  463   6.183   1.787   1.199
    1GOFLA H464  464   6.063   2.001   1.194
    1GOFLA H465  465   5.939   2.216   1.201
    1GOFLA H466  466   5.815   2.429   1.211
    1GOFLA H467  467   5.695   2.634   1.184
    1GOFLA H468  468   5.565   2.859   1.191
    1GOFLA H469  469   5.444   3.067   1.202
    1GOFLA H470  470   5.323   3.281   1.218
    1GOFLA H471  471   5.201   3.490   1.204
    1GOFLA H472  472   5.073   3.720   1.185
    1GOFLA H473  473   4.952   3.923   1.212
    1GOFLA H474  474   4.833   4.135   1.197
    1GOFLA O475  475   4.048   2.834   1.332
    1GOFLA O476  476   3.295   1.413   1.342
    1GOFLA H477  477   3.292   1.338   1.403
    1GOFLA O478  478   3.694   2.841   1.318
    1GOFLA O479  479   4.710   1.489   1.332
    1GOFLA H480  480   4.787   1.505   1.387
    1GOFLA O481  481   3.262   3.589   1.329
    1GOFLA O482  482   5.316   2.452   1.349
    1GOFLA H483  483   5.293   2.537   1.388
    1GOFLA O484  484   2.760   3.150   1.326
    1GOFLA O485  485   5.280   1.820   1.338
    1GOFLA H486  486   5.288   1.732   1.374
    1GOFLA O487  487   2.699   3.904   1.328
    1GOFLA O488  488   3.282   3.951   1.348
    1GOFLA H489  489   3.365   3.992   1.372
    1GOFLA O490  490   4.184   2.619   1.335
    1GOFLA O491  491   4.130   1.564   1.341
    1GOFLA H492  492   4.169   1.641   1.383
    1GOFLA O493  493   5.912   1.554   1.326
    1GOFLA O494  494   2.313   3.086   1.332
    1GOFLA H495  495   2.391   3.134   1.360
    1GOFLA O496  496   4.986   3.155   1.329
    1GOFLA O497  497   3.612   3.844   1.353
    1GOFLA H498  498   3.556   3.907   1.397
    1GOFLA O499  499   4.435   3.894   1.328
    1GOFLA O500  500   4.311   1.362   1.326
    1GOFLA H501  501   4.252   1.389   1.396
    1GOFLA O502  502   2.841   3.475   1.329
    1GOFLA O503  503   4.046   4.065   1.317
    1GOFLA H504  504   3.992   4.122   1.372
    1GOFLA O505  505   4.072   2.191   1.317
    1GOFLA O506  506   5.580   1.549   1.336
    1GOFLA H507  507   5.561   1.627   1.388
    1GOFLA O508  508   2.715   2.404   1.326
    1GOFLA O509  509   3.849   2.477   1.333
    1GOFLA H510  510   3.889   2.413   1.393
    1GOFLA O511  511   3.818   3.479   1.332
    1GOFLA O512  512   4.760   2.237   1.356
    1GOFLA H513  513   4.847   2.269   1.383
    1GOFLA O514  514   4.556   2.627   1.305
    1GOFLA O515  515   4.333   3.304   1.341
    1GOFLA H516  516   4.395   3.356   1.395
    1GOFLA O517  517   3.817   1.976   1.331
    1GOFLA O518  518   2.398   2.632   1.341
    1GOFLA H519  519   2.483   2.657   1.379
    1GOFLA O520  520   2.952   1.979   1.312
    1GOFLA O521  521   3.290   1.784   1.358
    1GOFLA H522  522   3.364   1.837   1.388
    1GOFLA O523  523   3.687   3.263   1.330
    1GOFLA O524  524   3.353   2.052   1.348
    1GOFLA H525  525   3.431   2.083   1.395
    1GOFLA O526  526   3.017   1.448   1.318
    1GOFLA O527  527   5.044   3.567   1.313
    1GOFLA H528  528   4.977   3.585   1.379
    1GOFLA O529  529   5.039   1.552   1.330
    1GOFLA O530  530   2.410   2.201   1.345
    1GOFLA H531  531   2.331   2.215   1.400
    1GOFLA O532  532   2.759   2.741   1.319
    1GOFLA O533  533   4.705   3.220   1.333
    1GOFLA H534  534   4.759   3.153   1.376
    1GOFLA O535  535   5.166   2.821   1.326
    1GOFLA O536  536   5.808   2.039   1.341
    1GOFLA H537  537   5.873   2.097   1.379
    1GOFLA O538  538   4.617   2.934   1.309
    1GOFLA O539  539   2.260   3.630   1.337
    1GOFLA H540  540   2.208   3.696   1.384
    1GOFLA O541  541   3.198   2.837   1.316
    1GOFLA O542  542   1.860   3.732   1.336
    1GOFLA H543  543   1.898   3.657   1.382
    1GOFLA O544  544   2.210   3.904   1.319
    1GOFLA O545  545   2.252   2.795   1.338
    1GOFLA H546  546   2.314   2.734   1.380
    1GOFLA O547  547   3.316   3.241   1.331
    1GOFLA O548  548   3.931   1.380   1.332
    1GOFLA H549  549   3.920   1.461   1.384
    1GOFLA O550  550   3.556   2.613   1.329
    1GOFLA O551  551   6.013   1.831   1.322
    1GOFLA H552  552   5.951   1.785   1.379
    2CURC    C1  553   3.513   2.039   2.096
    2CURC    O2  554   3.649   1.997   2.112
    2CURC    C3  555   3.750   2.087   2.120
    2CURC    C4  556   3.740   2.228   2.120
    2CURC    C5  557   3.856   2.310   2.109
    2CURC    C6  558   3.836   2.450   2.078
    2CURC    C7  559   3.926   2.542   2.034
    2CURC    C8  560   3.885   2.681   2.008
    2CURC    O9  561   3.777   2.725   2.048
    2CURC   C10  562   3.995   2.777   1.961
    2CURC   C11  563   3.939   2.880   1.861
    2CURC   O12  564   3.962   2.874   1.740
    2CURC   C13  565   3.865   2.993   1.922
    2CURC   C14  566   3.815   3.091   1.843
    2CURC   C15  567   3.728   3.203   1.878
    2CURC   C16  568   3.693   3.298   1.781
    2CURC   C17  569   3.609   3.406   1.810
    2CURC   C18  570   3.557   3.424   1.938
    2CURC   O19  571   3.475   3.524   1.981
    2CURC   C20  572   3.583   3.325   2.035
    2CURC   O21  573   3.533   3.359   2.156
    2CURC   C22  574   3.544   3.265   2.259
    2CURC   C23  575   3.667   3.217   2.005
    2CURC   C24  576   3.983   2.248   2.104
    2CURC   C25  577   3.994   2.108   2.105
    2CURC   C26  578   3.879   2.028   2.109
    2CURC   O27  579   3.883   1.892   2.108
    2CURC   H28  580   3.482   2.109   2.176
    2CURC   H29  581   3.495   2.086   1.999
    2CURC   H30  582   3.455   1.948   2.104
    2CURC   H31  583   3.646   2.274   2.092
    2CURC   H32  584   3.733   2.486   2.081
    2CURC   H33  585   4.025   2.514   1.999
    2CURC   H34  586   4.076   2.723   1.911
    2CURC   H35  587   4.034   2.828   2.050
    2CURC   H36  588   3.828   2.974   2.022
    2CURC   H37  589   3.835   3.078   1.737
    2CURC   H38  590   3.740   3.295   1.682
    2CURC   H39  591   3.590   3.478   1.731
    2CURC   H40  592   3.457   3.586   1.909
    2CURC   H41  593   3.647   3.245   2.291
    2CURC   H42  594   3.487   3.303   2.342
    2CURC   H43  595   3.496   3.173   2.225
    2CURC   H44  596   3.675   3.135   2.074
    2CURC   H45  597   4.073   2.305   2.082
    2CURC   H46  598   4.085   2.063   2.067
    2CURC   H47  599   3.976   1.861   2.114
    3SOL     OW  600   0.232   0.614   0.130
    3SOL    HW1  601   0.139   0.626   0.151
    3SOL    HW2  602   0.233   0.596   0.036
    4SOL     OW  603   0.217   0.284   0.994
    4SOL    HW1  604   0.255   0.260   1.079
    4SOL    HW2  605   0.142   0.225   0.984
    5SOL     OW  606   7.518   0.382   0.640
    5SOL    HW1  607   7.436   0.402   0.685
    5SOL    HW2  608   7.498   0.304   0.588
    6SOL     OW  609   0.567   1.276   1.168
    6SOL    HW1  610   0.479   1.277   1.131
    6SOL    HW2  611   0.580   1.363   1.205
    7SOL     OW  612   1.554   1.511   0.703
    7SOL    HW1  613   1.505   1.497   0.784
    7SOL    HW2  614   1.487   1.519   0.635
    8SOL     OW  615   1.130   0.701   0.710
    8SOL    HW1  616   1.183   0.779   0.693
    8SOL    HW2  617   1.081   0.721   0.790
    9SOL     OW  618   1.768   0.604   0.227
    9SOL    HW1  619   1.730   0.603   0.139
    9SOL    HW2  620   1.726   0.531   0.272
   10SOL     OW  621   0.764   1.146   1.031
   10SOL    HW1  622   0.692   1.174   1.087
   10SOL    HW2  623   0.795   1.226   0.989
   11SOL     OW  624   0.854   0.791   1.821
   11SOL    HW1  625   0.847   0.864   1.883
   11SOL    HW2  626   0.878   0.832   1.738
   12SOL     OW  627   0.686   1.013   0.655
   12SOL    HW1  628   0.749   0.994   0.725
   12SOL    HW2  629   0.616   1.061   0.699
   13SOL     OW  630   0.699   1.155   1.805
   13SOL    HW1  631   0.749   1.235   1.824
   13SOL    HW2  632   0.615   1.186   1.772
   14SOL     OW  633   0.332   1.434   1.067
   14SOL    HW1  634   0.260   1.401   1.012
   14SOL    HW2  635   0.386   1.485   1.007
   15SOL     OW  636   1.462   1.500   1.344
   15SOL    HW1  637   1.491   1.589   1.361
   15SOL    HW2  638   1.428   1.469   1.428
   16SOL     OW  639   0.451   0.400   1.496
   16SOL    HW1  640   0.523   0.337   1.500
   16SOL    HW2  641   0.372   0.348   1.504
   17SOL     OW  642   1.612   0.451   0.735
   17SOL    HW1  643   1.535   0.485   0.689
   17SOL    HW2  644   1.642   0.524   0.789
   18SOL     OW  645   0.222   1.712   0.477
   18SOL    HW1  646   0.250   1.788   0.528
   18SOL    HW2  647   0.281   1.710   0.402
   19SOL     OW  648   1.133   1.340   1.689
   19SOL    HW1  649   1.173   1.338   1.776
   19SOL    HW2  650   1.080   1.261   1.685
   20SOL     OW  651   0.229   1.437   0.535
   20SOL    HW1  652   0.209   1.530   0.541
   20SOL    HW2  653   0.161   1.395   0.588
   21SOL     OW  654   0.242   1.088   0.885
   21SOL    HW1  655   0.250   1.007   0.935
   21SOL    HW2  656   0.190   1.146   0.941
   22SOL     OW  657   0.619   1.789   1.435
   22SOL    HW1  658   0.534   1.774   1.477
   22SOL    HW2  659   0.642   1.878   1.459
   23SOL     OW  660   0.596   0.970   0.135
   23SOL    HW1  661   0.616   1.035   0.068
   23SOL    HW2  662   0.649   0.995   0.211
   24SOL     OW  663   1.603   0.118   1.472
   24SOL    HW1  664   1.578   0.189   1.413
   24SOL    HW2  665   1.588   0.154   1.560
   25SOL     OW  666   0.115   0.646   0.560
   25SOL    HW1  667   0.084   0.559   0.583
   25SOL    HW2  668   0.107   0.696   0.642
   26SOL     OW  669   1.839   1.768   0.351
   26SOL    HW1  670   1.895   1.738   0.423
   26SOL    HW2  671   1.873   1.855   0.328
   27SOL     OW  672   0.026   1.608   0.138
   27SOL    HW1  673   0.006   1.515   0.154
   27SOL    HW2  674  -0.016   1.654   0.210
   28SOL     OW  675   1.690   0.918   0.628
   28SOL    HW1  676   1.780   0.888   0.618
   28SOL    HW2  677   1.674   0.972   0.550
   29SOL     OW  678   1.645   1.106   0.434
   29SOL    HW1  679   1.725   1.121   0.383
   29SOL    HW2  680   1.652   1.167   0.508
   30SOL     OW  681   0.119   0.740   1.590
   30SOL    HW1  682   0.209   0.745   1.623
   30SOL    HW2  683   0.089   0.831   1.587
   31SOL     OW  684   0.612   1.374   0.733
   31SOL    HW1  685   0.565   1.291   0.739
   31SOL    HW2  686   0.593   1.406   0.644
   32SOL     OW  687   1.292   1.237   1.425
   32SOL    HW1  688   1.326   1.168   1.368
   32SOL    HW2  689   1.344   1.229   1.505
   33SOL     OW  690   0.811   0.003   0.493
   33SOL    HW1  691   0.849   0.091   0.488
   33SOL    HW2  692   0.717   0.018   0.499
   34SOL     OW  693   0.195   0.973   1.264
   34SOL    HW1  694   0.278   0.928   1.250
   34SOL    HW2  695   0.129   0.910   1.236
   35SOL     OW  696   1.526   0.996   0.195
   35SOL    HW1  697   1.463   0.929   0.219
   35SOL    HW2  698   1.567   1.021   0.277
   36SOL     OW  699   1.183   1.798   1.616
   36SOL    HW1  700   1.208   1.854   1.542
   36SOL    HW2  701   1.198   1.709   1.586
   37SOL     OW  702   0.328   0.255   1.805
   37SOL    HW1  703   0.384   0.332   1.815
   37SOL    HW2  704   0.241   0.284   1.831
   38SOL     OW  705   1.464   1.419   0.954
   38SOL    HW1  706   1.399   1.429   1.023
   38SOL    HW2  707   1.453   1.330   0.923
   39SOL     OW  708   1.663   1.723   0.577
   39SOL    HW1  709   1.634   1.697   0.490
   39SOL    HW2  710   1.640   1.650   0.633
   40SOL     OW  711   0.597   0.726   0.261
   40SOL    HW1  712   0.609   0.804   0.207
   40SOL    HW2  713   0.531   0.752   0.326
   41SOL     OW  714   1.283   0.342   0.932
   41SOL    HW1  715   1.194   0.307   0.938
   41SOL    HW2  716   1.332   0.294   0.999
   42SOL     OW  717   1.579   1.666   0.309
   42SOL    HW1  718   1.666   1.706   0.306
   42SOL    HW2  719   1.560   1.643   0.218
   43SOL     OW  720   0.799   0.612   1.457
   43SOL    HW1  721   0.766   0.595   1.545
   43SOL    HW2  722   0.751   0.550   1.402
   44SOL     OW  723   1.393   0.472   1.676
   44SOL    HW1  724   1.388   0.515   1.762
   44SOL    HW2  725   1.463   0.407   1.687
   45SOL     OW  726   0.964   0.890   1.578
   45SOL    HW1  727   1.016   0.816   1.546
   45SOL    HW2  728   0.917   0.922   1.501
   46SOL     OW  729   0.993   0.413   1.241
   46SOL    HW1  730   0.913   0.439   1.288
   46SOL    HW2  731   0.961   0.362   1.166
   47SOL     OW  732   1.048   0.699   0.428
   47SOL    HW1  733   1.061   0.694   0.523
   47SOL    HW2  734   0.965   0.653   0.413
   48SOL     OW  735   0.085   0.816   0.776
   48SOL    HW1  736   0.171   0.807   0.817
   48SOL    HW2  737   0.049   0.897   0.811
   49SOL     OW  738   0.129   1.825   1.573
   49SOL    HW1  739   0.122   1.812   1.668
   49SOL    HW2  740   0.042   1.854   1.546
   50SOL     OW  741   0.870   0.354   0.192
   50SOL    HW1  742   0.936   0.401   0.141
   50SOL    HW2  743   0.879   0.263   0.165
   51SOL     OW  744   1.713   0.581   1.830
   51SOL    HW1  745   1.684   0.663   1.790
   51SOL    HW2  746   1.726   0.522   1.755
   52SOL     OW  747   1.370   1.144   0.543
   52SOL    HW1  748   1.447   1.124   0.491
   52SOL    HW2  749   1.320   1.206   0.490
   53SOL     OW  750   0.541   0.196   0.884
   53SOL    HW1  751   0.553   0.203   0.979
   53SOL    HW2  752   0.555   0.285   0.851
   54SOL     OW  753   1.010   1.450   0.476
   54SOL    HW1  754   0.966   1.520   0.428
   54SOL    HW2  755   1.002   1.475   0.568
   55SOL     OW  756   0.352   1.802   0.852
   55SOL    HW1  757   0.400   1.720   0.864
   55SOL    HW2  758   0.418   1.870   0.861
   56SOL     OW  759   1.797   1.063   0.868
   56SOL    HW1  760   1.735   1.051   0.796
   56SOL    HW2  761   1.742   1.069   0.946
   57SOL     OW  762   1.228   1.545   1.509
   57SOL    HW1  763   1.221   1.471   1.569
   57SOL    HW2  764   1.172   1.522   1.435
   58SOL     OW  765   0.314   0.951   0.225
   58SOL    HW1  766   0.403   0.972   0.197
   58SOL    HW2  767   0.306   0.857   0.206
   59SOL     OW  768   1.469   0.733   0.727
   59SOL    HW1  769   1.457   0.683   0.808
   59SOL    HW2  770   1.542   0.791   0.744
   60SOL     OW  771   0.462   1.261   1.736
   60SOL    HW1  772   0.428   1.268   1.646
   60SOL    HW2  773   0.384   1.259   1.791
   61SOL     OW  774   1.104   1.784   0.234
   61SOL    HW1  775   1.051   1.728   0.290
   61SOL    HW2  776   1.136   1.725   0.165
   62SOL     OW  777   0.205   0.307   1.495
   62SOL    HW1  778   0.119   0.348   1.485
   62SOL    HW2  779   0.190   0.233   1.554
   63SOL     OW  780   1.628   1.378   0.096
   63SOL    HW1  781   1.589   1.463   0.073
   63SOL    HW2  782   1.563   1.314   0.067
   64SOL     OW  783   0.467   1.739   0.324
   64SOL    HW1  784   0.501   1.792   0.396
   64SOL    HW2  785   0.542   1.728   0.265
   65SOL     OW  786   1.398   0.114   0.427
   65SOL    HW1  787   1.384   0.084   0.337
   65SOL    HW2  788   1.493   0.121   0.436
   66SOL     OW  789   0.252   1.790   1.237
   66SOL    HW1  790   0.304   1.725   1.284
   66SOL    HW2  791   0.239   1.752   1.150
   67SOL     OW  792   0.940   1.698   0.903
   67SOL    HW1  793   1.015   1.642   0.921
   67SOL    HW2  794   0.892   1.652   0.834
   68SOL     OW  795   0.385   0.698   0.479
   68SOL    HW1  796   0.417   0.607   0.482
   68SOL    HW2  797   0.293   0.692   0.503
   69SOL     OW  798   1.541   0.228   1.724
   69SOL    HW1  799   1.546   0.250   1.818
   69SOL    HW2  800   1.478   0.157   1.719
   70SOL     OW  801   0.613   0.138   0.104
   70SOL    HW1  802   0.698   0.097   0.122
   70SOL    HW2  803   0.585   0.098   0.022
   71SOL     OW  804   0.774   0.271   1.750
   71SOL    HW1  805   0.842   0.209   1.777
   71SOL    HW2  806   0.713   0.273   1.824
   72SOL     OW  807   0.881   1.519   1.193
   72SOL    HW1  808   0.865   1.485   1.105
   72SOL    HW2  809   0.945   1.458   1.231
   73SOL     OW  810   1.344   0.589   1.432
   73SOL    HW1  811   1.375   0.555   1.516
   73SOL    HW2  812   1.378   0.679   1.429
   74SOL     OW  813   0.808   1.403   0.930
   74SOL    HW1  814   0.892   1.401   0.884
   74SOL    HW2  815   0.742   1.396   0.860
   75SOL     OW  816   0.925   0.508   0.903
   75SOL    HW1  817   0.902   0.496   0.811
   75SOL    HW2  818   0.963   0.423   0.928
   76SOL     OW  819   0.547   0.061   0.510
   76SOL    HW1  820   0.463   0.060   0.556
   76SOL    HW2  821   0.542   0.138   0.453
   77SOL     OW  822   1.425   1.196   0.033
   77SOL    HW1  823   1.464   1.124   0.084
   77SOL    HW2  824   1.341   1.213   0.075
   78SOL     OW  825   0.297   0.055   0.193
   78SOL    HW1  826   0.352   0.122   0.153
   78SOL    HW2  827   0.357  -0.016   0.214
   79SOL     OW  828   0.935   0.241   0.471
   79SOL    HW1  829   0.900   0.283   0.393
   79SOL    HW2  830   1.030   0.252   0.463
   80SOL     OW  831   1.079   0.679   1.461
   80SOL    HW1  832   1.006   0.617   1.466
   80SOL    HW2  833   1.156   0.623   1.448
   81SOL     OW  834   1.225   1.570   0.793
   81SOL    HW1  835   1.248   1.638   0.731
   81SOL    HW2  836   1.293   1.576   0.861
   82SOL     OW  837   0.463   1.146   0.742
   82SOL    HW1  838   0.389   1.128   0.800
   82SOL    HW2  839   0.429   1.127   0.654
   83SOL     OW  840   1.272   1.797   0.598
   83SOL    HW1  841   1.313   1.860   0.539
   83SOL    HW2  842   1.215   1.850   0.653
   84SOL     OW  843   1.021   0.544   0.034
   84SOL    HW1  844   1.001   0.623  -0.016
   84SOL    HW2  845   1.096   0.567   0.088
   85SOL     OW  846   0.072   0.558   1.388
   85SOL    HW1  847   0.162   0.554   1.357
   85SOL    HW2  848   0.072   0.627   1.454
   86SOL     OW  849   0.565   0.227   1.156
   86SOL    HW1  850   0.599   0.145   1.191
   86SOL    HW2  851   0.475   0.232   1.189
   87SOL     OW  852   0.871   0.458   0.641
   87SOL    HW1  853   0.827   0.516   0.578
   87SOL    HW2  854   0.887   0.378   0.592
   88SOL     OW  855   1.010   0.048   0.763
   88SOL    HW1  856   0.950   0.046   0.688
   88SOL    HW2  857   0.993  -0.035   0.808
   89SOL     OW  858   1.434   1.166   0.861
   89SOL    HW1  859   1.371   1.094   0.856
   89SOL    HW2  860   1.454   1.187   0.770
   90SOL     OW  861   1.471   0.595   0.986
   90SOL    HW1  862   1.429   0.510   0.996
   90SOL    HW2  863   1.533   0.600   1.058
   91SOL     OW  864   1.852   0.823   0.378
   91SOL    HW1  865   1.902   0.766   0.437
   91SOL    HW2  866   1.821   0.765   0.309
   92SOL     OW  867   0.494   1.392   0.160
   92SOL    HW1  868   0.423   1.369   0.220
   92SOL    HW2  869   0.449   1.418   0.079
   93SOL     OW  870   1.666   1.269   0.657
   93SOL    HW1  871   1.760   1.280   0.665
   93SOL    HW2  872   1.630   1.356   0.677
   94SOL     OW  873   1.383   0.572   0.071
   94SOL    HW1  874   1.334   0.552   0.150
   94SOL    HW2  875   1.471   0.538   0.088
   95SOL     OW  876   0.528   0.262   0.327
   95SOL    HW1  877   0.560   0.209   0.254
   95SOL    HW2  878   0.516   0.349   0.290
   96SOL     OW  879   1.754   1.230   1.581
   96SOL    HW1  880   1.842   1.192   1.578
   96SOL    HW2  881   1.767   1.319   1.612
   97SOL     OW  882   1.066   1.353   1.337
   97SOL    HW1  883   0.989   1.323   1.387
   97SOL    HW2  884   1.140   1.312   1.381
   98SOL     OW  885   1.598   1.626   1.643
   98SOL    HW1  886   1.608   1.658   1.553
   98SOL    HW2  887   1.682   1.584   1.662
   99SOL     OW  888   1.118   1.198   1.106
   99SOL    HW1  889   1.065   1.239   1.175
   99SOL    HW2  890   1.080   1.231   1.025
  100SOL     OW  891   1.636   1.102   1.079
  100SOL    HW1  892   1.632   1.168   1.148
  100SOL    HW2  893   1.552   1.111   1.033
  101SOL     OW  894   0.913   0.096   1.404
  101SOL    HW1  895   0.936   0.074   1.314
  101SOL    HW2  896   0.992   0.137   1.439
  102SOL     OW  897   0.983   1.114   1.720
  102SOL    HW1  898   0.889   1.125   1.734
  102SOL    HW2  899   0.990   1.036   1.664
  103SOL     OW  900   0.708   1.058   0.372
  103SOL    HW1  901   0.695   1.049   0.467
  103SOL    HW2  902   0.785   1.005   0.353
  104SOL     OW  903   0.414   0.812   1.250
  104SOL    HW1  904   0.486   0.823   1.312
  104SOL    HW2  905   0.377   0.727   1.271
  105SOL     OW  906   1.272   0.382   1.265
  105SOL    HW1  907   1.298   0.458   1.318
  105SOL    HW2  908   1.184   0.403   1.235
  106SOL     OW  909   0.061   1.570   1.341
  106SOL    HW1  910   0.028   1.648   1.297
  106SOL    HW2  911   0.155   1.582   1.345
  107SOL     OW  912   0.360   1.103   0.496
  107SOL    HW1  913   0.359   1.178   0.437
  107SOL    HW2  914   0.365   1.027   0.439
  108SOL     OW  915   0.561   0.538   0.863
  108SOL    HW1  916   0.578   0.598   0.791
  108SOL    HW2  917   0.615   0.570   0.935
  109SOL     OW  918   1.248   1.346   0.391
  109SOL    HW1  919   1.300   1.421   0.423
  109SOL    HW2  920   1.160   1.363   0.423
  110SOL     OW  921   1.272   1.451   1.144
  110SOL    HW1  922   1.323   1.455   1.225
  110SOL    HW2  923   1.216   1.374   1.155
  111SOL     OW  924   1.585   0.633   0.473
  111SOL    HW1  925   1.546   0.691   0.538
  111SOL    HW2  926   1.627   0.691   0.411
  112SOL     OW  927   0.350   1.517   1.323
  112SOL    HW1  928   0.336   1.475   1.239
  112SOL    HW2  929   0.444   1.534   1.327
  113SOL     OW  930   0.409   0.747   1.601
  113SOL    HW1  931   0.470   0.794   1.544
  113SOL    HW2  932   0.451   0.663   1.617
  114SOL     OW  933   1.590   0.774   1.673
  114SOL    HW1  934   1.504   0.816   1.666
  114SOL    HW2  935   1.644   0.820   1.608
  115SOL     OW  936   1.004   0.120   1.770
  115SOL    HW1  937   1.036   0.192   1.716
  115SOL    HW2  938   1.036   0.041   1.727
  116SOL     OW  939   0.498   0.047   1.746
  116SOL    HW1  940   0.458  -0.008   1.678
  116SOL    HW2  941   0.435   0.117   1.761
  117SOL     OW  942   0.579   0.871   1.030
  117SOL    HW1  943   0.612   0.960   1.025
  117SOL    HW2  944   0.521   0.871   1.106
  118SOL     OW  945   1.363   0.861   1.039
  118SOL    HW1  946   1.285   0.857   0.983
  118SOL    HW2  947   1.394   0.771   1.043
  119SOL     OW  948   1.211   0.527   0.274
  119SOL    HW1  949   1.216   0.449   0.329
  119SOL    HW2  950   1.173   0.594   0.331
  120SOL     OW  951   0.307   0.209   1.241
  120SOL    HW1  952   0.275   0.246   1.323
  120SOL    HW2  953   0.275   0.119   1.241
  121SOL     OW  954   0.041   1.307   1.277
  121SOL    HW1  955   0.081   1.261   1.351
  121SOL    HW2  956   0.050   1.400   1.299
  122SOL     OW  957   0.730   0.634   1.063
  122SOL    HW1  958   0.795   0.613   0.997
  122SOL    HW2  959   0.702   0.723   1.042
  123SOL     OW  960   1.733   0.953   1.851
  123SOL    HW1  961   1.681   0.916   1.779
  123SOL    HW2  962   1.669   0.969   1.921
  124SOL     OW  963   0.297   0.061   0.623
  124SOL    HW1  964   0.292   0.152   0.653
  124SOL    HW2  965   0.311   0.010   0.702
  125SOL     OW  966   1.610   0.369   0.370
  125SOL    HW1  967   1.635   0.305   0.437
  125SOL    HW2  968   1.584   0.447   0.420
  126SOL     OW  969   1.025   0.763   0.965
  126SOL    HW1  970   1.032   0.780   1.059
  126SOL    HW2  971   0.998   0.671   0.959
  127SOL     OW  972   0.982   1.567   1.709
  127SOL    HW1  973   0.965   1.611   1.625
  127SOL    HW2  974   1.022   1.484   1.684
  128SOL     OW  975   1.858   1.514   1.606
  128SOL    HW1  976   1.874   1.540   1.515
  128SOL    HW2  977   1.938   1.538   1.652
  129SOL     OW  978   0.350   0.913   1.805
  129SOL    HW1  979   0.432   0.935   1.850
  129SOL    HW2  980   0.376   0.854   1.735
  130SOL     OW  981   1.543   0.271   0.123
  130SOL    HW1  982   1.475   0.208   0.145
  130SOL    HW2  983   1.565   0.313   0.207
  131SOL     OW  984   1.302   0.831   0.035
  131SOL    HW1  985   1.335   0.741   0.043
  131SOL    HW2  986   1.319   0.855  -0.056
  132SOL     OW  987   1.065   1.334   0.850
  132SOL    HW1  988   1.070   1.259   0.791
  132SOL    HW2  989   1.129   1.396   0.816
  133SOL     OW  990   0.314   0.813   0.950
  133SOL    HW1  991   0.408   0.835   0.948
  133SOL    HW2  992   0.312   0.726   0.990
  134SOL     OW  993   0.337   0.519   1.008
  134SOL    HW1  994   0.296   0.434   0.992
  134SOL    HW2  995   0.412   0.521   0.948
  135SOL     OW  996   1.136   0.382   1.677
  135SOL    HW1  997   1.094   0.437   1.743
  135SOL    HW2  998   1.225   0.416   1.671
  136SOL     OW  999   1.154   0.207   1.473
  136SOL    HW1 1000   1.153   0.270   1.545
  136SOL    HW2 1001   1.191   0.255   1.399
  137SOL     OW 1002   7.505   1.331   0.194
  137SOL    HW1 1003   7.414   1.337   0.165
  137SOL    HW2 1004   7.516   1.239   0.218
  138SOL     OW 1005   0.082   1.797   0.930
  138SOL    HW1 1006   0.047   1.716   0.893
  138SOL    HW2 1007   0.172   1.800   0.899
  139SOL     OW 1008   0.502   1.572   0.905
  139SOL    HW1 1009   0.571   1.635   0.926
  139SOL    HW2 1010   0.548   1.500   0.860
  140SOL     OW 1011   0.996   0.797   1.232
  140SOL    HW1 1012   1.041   0.768   1.312
  140SOL    HW2 1013   0.907   0.763   1.242
  141SOL     OW 1014   0.031   0.541   1.115
  141SOL    HW1 1015   0.116   0.521   1.075
  141SOL    HW2 1016   0.050   0.552   1.208
  142SOL     OW 1017   0.188   0.516   1.722
  142SOL    HW1 1018   0.245   0.482   1.653
  142SOL    HW2 1019   0.136   0.584   1.680
  143SOL     OW 1020   1.375   0.944   1.660
  143SOL    HW1 1021   1.397   1.037   1.667
  143SOL    HW2 1022   1.375   0.927   1.566
  144SOL     OW 1023   0.815   0.571   0.344
  144SOL    HW1 1024   0.818   0.492   0.289
  144SOL    HW2 1025   0.731   0.612   0.322
  145SOL     OW 1026   1.645   0.600   1.194
  145SOL    HW1 1027   1.629   0.540   1.266
  145SOL    HW2 1028   1.732   0.577   1.162
  146SOL     OW 1029   0.256   1.558   1.738
  146SOL    HW1 1030   0.222   1.616   1.806
  146SOL    HW2 1031   0.244   1.470   1.774
  147SOL     OW 1032   0.684   0.459   1.267
  147SOL    HW1 1033   0.641   0.381   1.234
  147SOL    HW2 1034   0.691   0.517   1.191
  148SOL     OW 1035   0.932   1.677   1.464
  148SOL    HW1 1036   0.905   1.657   1.375
  148SOL    HW2 1037   0.944   1.772   1.465
  149SOL     OW 1038   0.470   0.495   0.198
  149SOL    HW1 1039   0.526   0.572   0.202
  149SOL    HW2 1040   0.381   0.530   0.191
  150SOL     OW 1041   0.153   1.140   1.466
  150SOL    HW1 1042   0.164   1.084   1.543
  150SOL    HW2 1043   0.168   1.082   1.391
  151SOL     OW 1044   1.338   1.052   1.230
  151SOL    HW1 1045   1.362   0.993   1.158
  151SOL    HW2 1046   1.259   1.097   1.198
  152SOL     OW 1047   1.306   0.848   0.311
  152SOL    HW1 1048   1.222   0.827   0.351
  152SOL    HW2 1049   1.290   0.845   0.217
  153SOL     OW 1050   1.759   1.750   1.147
  153SOL    HW1 1051   1.823   1.773   1.079
  153SOL    HW2 1052   1.737   1.659   1.129
  154SOL     OW 1053   1.245   1.732   1.123
  154SOL    HW1 1054   1.327   1.742   1.074
  154SOL    HW2 1055   1.240   1.637   1.140
  155SOL     OW 1056   0.080   1.255   1.017
  155SOL    HW1 1057   0.070   1.267   1.112
  155SOL    HW2 1058  -0.002   1.215   0.989
  156SOL     OW 1059   0.680   1.661   1.718
  156SOL    HW1 1060   0.632   1.744   1.721
  156SOL    HW2 1061   0.738   1.670   1.642
  157SOL     OW 1062   0.911   0.096   0.126
  157SOL    HW1 1063   0.963   0.075   0.048
  157SOL    HW2 1064   0.946   0.039   0.194
  158SOL     OW 1065   1.717   0.136   0.509
  158SOL    HW1 1066   1.799   0.124   0.460
  158SOL    HW2 1067   1.708   0.056   0.560
  159SOL     OW 1068   1.389   1.569   0.480
  159SOL    HW1 1069   1.450   1.594   0.411
  159SOL    HW2 1070   1.347   1.651   0.505
  160SOL     OW 1071   0.132   1.798   1.845
  160SOL    HW1 1072   0.086   1.731   1.896
  160SOL    HW2 1073   0.186   1.843   1.909
  161SOL     OW 1074   1.278   0.923   0.671
  161SOL    HW1 1075   1.348   0.858   0.672
  161SOL    HW2 1076   1.312   0.995   0.619
  162SOL     OW 1077   0.825   1.271   1.430
  162SOL    HW1 1078   0.807   1.308   1.516
  162SOL    HW2 1079   0.748   1.293   1.378
  163SOL     OW 1080   0.675   1.612   0.161
  163SOL    HW1 1081   0.670   1.632   0.067
  163SOL    HW2 1082   0.624   1.532   0.171
  164SOL     OW 1083   1.644   1.725   1.394
  164SOL    HW1 1084   1.689   1.736   1.310
  164SOL    HW2 1085   1.626   1.814   1.423
  165SOL     OW 1086   1.842   0.155   0.966
  165SOL    HW1 1087   1.870   0.088   0.904
  165SOL    HW2 1088   1.756   0.183   0.935
  166SOL     OW 1089   0.267   0.318   0.721
  166SOL    HW1 1090   0.186   0.360   0.691
  166SOL    HW2 1091   0.258   0.315   0.816
  167SOL     OW 1092   1.186   1.615   0.053
  167SOL    HW1 1093   1.191   1.522   0.076
  167SOL    HW2 1094   1.161   1.616  -0.039
  168SOL     OW 1095   0.825   1.005   1.372
  168SOL    HW1 1096   0.865   1.004   1.285
  168SOL    HW2 1097   0.828   1.096   1.400
  169SOL     OW 1098   0.916   0.911   0.290
  169SOL    HW1 1099   0.978   0.945   0.225
  169SOL    HW2 1100   0.961   0.836   0.329
  170SOL     OW 1101   1.504   1.620   0.044
  170SOL    HW1 1102   1.410   1.632   0.037
  170SOL    HW2 1103   1.537   1.633  -0.045
  171SOL     OW 1104   0.370   1.295   1.491
  171SOL    HW1 1105   0.356   1.377   1.445
  171SOL    HW2 1106   0.292   1.243   1.474
  172SOL     OW 1107   1.612   1.286   1.284
  172SOL    HW1 1108   1.671   1.286   1.360
  172SOL    HW2 1109   1.550   1.356   1.302
  173SOL     OW 1110   1.042   1.101   0.702
  173SOL    HW1 1111   0.974   1.050   0.745
  173SOL    HW2 1112   1.100   1.036   0.662
  174SOL     OW 1113   1.020   0.240   0.965
  174SOL    HW1 1114   1.008   0.193   0.882
  174SOL    HW2 1115   1.009   0.174   1.032
  175SOL     OW 1116   0.598   1.490   0.486
  175SOL    HW1 1117   0.633   1.436   0.416
  175SOL    HW2 1118   0.541   1.553   0.442
  176SOL     OW 1119   1.713   0.393   1.382
  176SOL    HW1 1120   1.782   0.459   1.383
  176SOL    HW2 1121   1.747   0.323   1.327
  177SOL     OW 1122   0.258   1.350   0.288
  177SOL    HW1 1123   0.166   1.345   0.262
  177SOL    HW2 1124   0.257   1.388   0.375
  178SOL     OW 1125   0.105   1.012   1.724
  178SOL    HW1 1126   0.032   0.983   1.779
  178SOL    HW2 1127   0.183   0.980   1.768
  179SOL     OW 1128   0.668   0.202   1.492
  179SOL    HW1 1129   0.752   0.179   1.452
  179SOL    HW2 1130   0.689   0.215   1.585
  180SOL     OW 1131   0.067   0.337   0.032
  180SOL    HW1 1132  -0.027   0.333   0.012
  180SOL    HW2 1133   0.096   0.418  -0.008
  181SOL     OW 1134   1.436   0.857   1.402
  181SOL    HW1 1135   1.387   0.913   1.341
  181SOL    HW2 1136   1.527   0.865   1.373
  182SOL     OW 1137   0.064   0.161   0.314
  182SOL    HW1 1138   0.060   0.244   0.266
  182SOL    HW2 1139   0.151   0.127   0.295
  183SOL     OW 1140   1.185   1.350   0.119
  183SOL    HW1 1141   1.094   1.321   0.116
  183SOL    HW2 1142   1.211   1.340   0.211
  184SOL     OW 1143   0.615   0.836   1.430
  184SOL    HW1 1144   0.670   0.913   1.417
  184SOL    HW2 1145   0.677   0.763   1.438
  185SOL     OW 1146   1.488   1.771   0.967
  185SOL    HW1 1147   1.521   1.828   0.897
  185SOL    HW2 1148   1.563   1.761   1.026
  186SOL     OW 1149   0.715   0.565   1.709
  186SOL    HW1 1150   0.744   0.628   1.775
  186SOL    HW2 1151   0.766   0.486   1.728
  187SOL     OW 1152   1.460   1.209   1.634
  187SOL    HW1 1153   1.451   1.218   1.729
  187SOL    HW2 1154   1.554   1.216   1.618
  188SOL     OW 1155   0.386   1.741   1.562
  188SOL    HW1 1156   0.298   1.777   1.554
  188SOL    HW2 1157   0.374   1.654   1.600
  189SOL     OW 1158   1.675   0.883   1.256
  189SOL    HW1 1159   1.658   0.798   1.214
  189SOL    HW2 1160   1.668   0.946   1.184
  190SOL     OW 1161   1.221   0.321   0.454
  190SOL    HW1 1162   1.286   0.251   0.447
  190SOL    HW2 1163   1.247   0.369   0.534
  191SOL     OW 1164   0.594   0.743   0.660
  191SOL    HW1 1165   0.635   0.828   0.642
  191SOL    HW2 1166   0.517   0.741   0.602
  192SOL     OW 1167   1.773   0.348   1.644
  192SOL    HW1 1168   1.750   0.369   1.553
  192SOL    HW2 1169   1.697   0.301   1.677
  193SOL     OW 1170   1.737   0.933   1.515
  193SOL    HW1 1171   1.757   1.026   1.526
  193SOL    HW2 1172   1.725   0.923   1.420
  194SOL     OW 1173   0.907   1.377   0.041
  194SOL    HW1 1174   0.833   1.378   0.102
  194SOL    HW2 1175   0.898   1.458  -0.009
  195SOL     OW 1176   0.657   1.794   0.952
  195SOL    HW1 1177   0.630   1.883   0.930
  195SOL    HW2 1178   0.753   1.795   0.943
  196SOL     OW 1179   0.862   0.960   0.858
  196SOL    HW1 1180   0.914   0.893   0.903
  196SOL    HW2 1181   0.833   1.019   0.928
  197SOL     OW 1182   1.097   1.003   0.100
  197SOL    HW1 1183   1.047   1.015   0.019
  197SOL    HW2 1184   1.165   0.939   0.077
  198SOL     OW 1185   1.861   1.562   0.847
  198SOL    HW1 1186   1.786   1.550   0.788
  198SOL    HW2 1187   1.853   1.491   0.910
  199SOL     OW 1188   0.223   1.308   1.851
  199SOL    HW1 1189   0.155   1.244   1.828
  199SOL    HW2 1190   0.212   1.321   1.946
  200SOL     OW 1191   0.079   1.239   0.656
  200SOL    HW1 1192   0.080   1.191   0.740
  200SOL    HW2 1193   0.153   1.203   0.608
  201SOL     OW 1194   0.676   1.396   1.622
  201SOL    HW1 1195   0.598   1.352   1.655
  201SOL    HW2 1196   0.671   1.484   1.659
  202SOL     OW 1197   1.847   0.216   1.243
  202SOL    HW1 1198   1.815   0.129   1.266
  202SOL    HW2 1199   1.840   0.219   1.147
  203SOL     OW 1200   0.428   0.430   0.522
  203SOL    HW1 1201   0.457   0.359   0.465
  203SOL    HW2 1202   0.388   0.387   0.597
  204SOL     OW 1203   1.703   1.493   1.105
  204SOL    HW1 1204   1.620   1.462   1.069
  204SOL    HW2 1205   1.723   1.430   1.174
  205SOL     OW 1206   0.322   0.548   1.287
  205SOL    HW1 1207   0.374   0.493   1.346
  205SOL    HW2 1208   0.351   0.524   1.199
  206SOL     OW 1209   0.820   1.579   0.685
  206SOL    HW1 1210   0.829   1.607   0.593
  206SOL    HW2 1211   0.739   1.528   0.686
  207SOL     OW 1212   1.433   0.219   1.117
  207SOL    HW1 1213   1.474   0.153   1.173
  207SOL    HW2 1214   1.379   0.270   1.176
  208SOL     OW 1215   0.988   0.037   1.146
  208SOL    HW1 1216   0.946  -0.049   1.140
  208SOL    HW2 1217   1.082   0.017   1.148
  209SOL     OW 1218   0.767   1.331   0.305
  209SOL    HW1 1219   0.732   1.243   0.317
  209SOL    HW2 1220   0.855   1.328   0.345
  210SOL     OW 1221   0.619   1.564   1.282
  210SOL    HW1 1222   0.622   1.643   1.336
  210SOL    HW2 1223   0.706   1.558   1.244
  211SOL     OW 1224   1.355   0.049   0.165
  211SOL    HW1 1225   1.387   0.016   0.081
  211SOL    HW2 1226   1.267   0.014   0.173
  212SOL     OW 1227   1.300   0.457   0.687
  212SOL    HW1 1228   1.243   0.534   0.696
  212SOL    HW2 1229   1.301   0.418   0.774
  213SOL     OW 1230   1.596   0.218   0.881
  213SOL    HW1 1231   1.519   0.224   0.938
  213SOL    HW2 1232   1.590   0.295   0.825
  214SOL     OW 1233   0.038   1.073   0.299
  214SOL    HW1 1234   0.133   1.060   0.299
  214SOL    HW2 1235   0.002   0.992   0.333
  215SOL     OW 1236   0.877   1.646   0.348
  215SOL    HW1 1237   0.807   1.625   0.286
  215SOL    HW2 1238   0.844   1.723   0.395
  216SOL     OW 1239   0.231   0.627   1.979
  216SOL    HW1 1240   0.141   0.625   2.010
  216SOL    HW2 1241   0.226   0.594   1.889
  217SOL     OW 1242   0.217   0.283   2.855
  217SOL    HW1 1243   0.255   0.261   2.940
  217SOL    HW2 1244   0.142   0.225   2.846
  218SOL     OW 1245   7.518   0.382   2.502
  218SOL    HW1 1246   7.436   0.403   2.547
  218SOL    HW2 1247   7.498   0.304   2.450
  219SOL     OW 1248   0.567   1.276   3.029
  219SOL    HW1 1249   0.479   1.277   2.994
  219SOL    HW2 1250   0.579   1.363   3.067
  220SOL     OW 1251   1.554   1.511   2.565
  220SOL    HW1 1252   1.506   1.498   2.646
  220SOL    HW2 1253   1.486   1.519   2.498
  221SOL     OW 1254   1.130   0.701   2.572
  221SOL    HW1 1255   1.183   0.779   2.555
  221SOL    HW2 1256   1.081   0.721   2.652
  222SOL     OW 1257   1.759   0.609   2.095
  222SOL    HW1 1258   1.744   0.597   2.001
  222SOL    HW2 1259   1.728   0.528   2.135
  223SOL     OW 1260   0.764   1.146   2.893
  223SOL    HW1 1261   0.692   1.174   2.949
  223SOL    HW2 1262   0.795   1.226   2.851
  224SOL     OW 1263   0.687   1.013   2.517
  224SOL    HW1 1264   0.749   0.994   2.588
  224SOL    HW2 1265   0.616   1.061   2.560
  225SOL     OW 1266   0.332   1.434   2.929
  225SOL    HW1 1267   0.260   1.400   2.875
  225SOL    HW2 1268   0.386   1.485   2.868
  226SOL     OW 1269   1.465   1.500   3.201
  226SOL    HW1 1270   1.497   1.588   3.220
  226SOL    HW2 1271   1.429   1.469   3.284
  227SOL     OW 1272   0.452   0.400   3.353
  227SOL    HW1 1273   0.522   0.335   3.361
  227SOL    HW2 1274   0.371   0.350   3.364
  228SOL     OW 1275   1.611   0.450   2.597
  228SOL    HW1 1276   1.535   0.485   2.551
  228SOL    HW2 1277   1.643   0.523   2.651
  229SOL     OW 1278   0.222   1.711   2.339
  229SOL    HW1 1279   0.250   1.788   2.390
  229SOL    HW2 1280   0.281   1.709   2.264
  230SOL     OW 1281   0.228   1.436   2.396
  230SOL    HW1 1282   0.209   1.530   2.403
  230SOL    HW2 1283   0.162   1.394   2.450
  231SOL     OW 1284   0.242   1.088   2.747
  231SOL    HW1 1285   0.250   1.007   2.798
  231SOL    HW2 1286   0.190   1.146   2.803
  232SOL     OW 1287   0.620   1.787   3.299
  232SOL    HW1 1288   0.534   1.773   3.339
  232SOL    HW2 1289   0.641   1.878   3.318
  233SOL     OW 1290   0.595   0.974   1.990
  233SOL    HW1 1291   0.627   1.038   1.927
  233SOL    HW2 1292   0.642   0.994   2.071
  234SOL     OW 1293   1.599   0.119   3.340
  234SOL    HW1 1294   1.583   0.189   3.277
  234SOL    HW2 1295   1.586   0.160   3.426
  235SOL     OW 1296   0.116   0.646   2.423
  235SOL    HW1 1297   0.084   0.559   2.445
  235SOL    HW2 1298   0.108   0.696   2.504
  236SOL     OW 1299   1.842   1.764   2.207
  236SOL    HW1 1300   1.894   1.736   2.281
  236SOL    HW2 1301   1.873   1.853   2.188
  237SOL     OW 1302   0.026   1.598   1.986
  237SOL    HW1 1303   0.012   1.505   2.005
  237SOL    HW2 1304  -0.011   1.644   2.062
  238SOL     OW 1305   1.690   0.919   2.490
  238SOL    HW1 1306   1.779   0.887   2.480
  238SOL    HW2 1307   1.674   0.972   2.411
  239SOL     OW 1308   1.644   1.108   2.293
  239SOL    HW1 1309   1.727   1.119   2.247
  239SOL    HW2 1310   1.652   1.166   2.369
  240SOL     OW 1311   0.118   0.737   3.449
  240SOL    HW1 1312   0.208   0.744   3.481
  240SOL    HW2 1313   0.086   0.828   3.446
  241SOL     OW 1314   0.612   1.374   2.594
  241SOL    HW1 1315   0.565   1.291   2.601
  241SOL    HW2 1316   0.593   1.405   2.506
  242SOL     OW 1317   1.298   1.237   3.297
  242SOL    HW1 1318   1.327   1.170   3.235
  242SOL    HW2 1319   1.350   1.219   3.376
  243SOL     OW 1320   0.811   0.003   2.356
  243SOL    HW1 1321   0.849   0.091   2.350
  243SOL    HW2 1322   0.717   0.018   2.362
  244SOL     OW 1323   0.196   0.973   3.124
  244SOL    HW1 1324   0.278   0.927   3.112
  244SOL    HW2 1325   0.128   0.910   3.099
  245SOL     OW 1326   1.532   0.991   2.054
  245SOL    HW1 1327   1.463   0.929   2.078
  245SOL    HW2 1328   1.569   1.020   2.138
  246SOL     OW 1329   1.464   1.420   2.815
  246SOL    HW1 1330   1.399   1.429   2.885
  246SOL    HW2 1331   1.453   1.330   2.785
  247SOL     OW 1332   1.665   1.723   2.438
  247SOL    HW1 1333   1.634   1.697   2.351
  247SOL    HW2 1334   1.641   1.650   2.495
  248SOL     OW 1335   0.595   0.725   2.126
  248SOL    HW1 1336   0.611   0.801   2.070
  248SOL    HW2 1337   0.528   0.755   2.188
  249SOL     OW 1338   1.283   0.342   2.795
  249SOL    HW1 1339   1.194   0.307   2.800
  249SOL    HW2 1340   1.332   0.293   2.861
  250SOL     OW 1341   1.581   1.664   2.170
  250SOL    HW1 1342   1.667   1.705   2.167
  250SOL    HW2 1343   1.560   1.645   2.079
  251SOL     OW 1344   0.802   0.610   3.318
  251SOL    HW1 1345   0.767   0.597   3.406
  251SOL    HW2 1346   0.752   0.551   3.262
  252SOL     OW 1347   0.969   0.895   3.432
  252SOL    HW1 1348   1.014   0.818   3.397
  252SOL    HW2 1349   0.913   0.925   3.360
  253SOL     OW 1350   0.992   0.412   3.104
  253SOL    HW1 1351   0.912   0.440   3.148
  253SOL    HW2 1352   0.961   0.363   3.028
  254SOL     OW 1353   1.047   0.699   2.290
  254SOL    HW1 1354   1.061   0.694   2.385
  254SOL    HW2 1355   0.965   0.652   2.275
  255SOL     OW 1356   0.085   0.815   2.638
  255SOL    HW1 1357   0.171   0.807   2.679
  255SOL    HW2 1358   0.049   0.897   2.673
  256SOL     OW 1359   0.131   1.829   3.439
  256SOL    HW1 1360   0.115   1.805   3.530
  256SOL    HW2 1361   0.044   1.849   3.404
  257SOL     OW 1362   0.877   0.345   2.059
  257SOL    HW1 1363   0.926   0.404   2.002
  257SOL    HW2 1364   0.890   0.258   2.021
  258SOL     OW 1365   1.369   1.143   2.405
  258SOL    HW1 1366   1.448   1.124   2.354
  258SOL    HW2 1367   1.320   1.206   2.352
  259SOL     OW 1368   0.541   0.196   2.746
  259SOL    HW1 1369   0.553   0.204   2.841
  259SOL    HW2 1370   0.555   0.285   2.714
  260SOL     OW 1371   1.010   1.449   2.338
  260SOL    HW1 1372   0.967   1.520   2.290
  260SOL    HW2 1373   1.003   1.474   2.430
  261SOL     OW 1374   0.352   1.802   2.714
  261SOL    HW1 1375   0.399   1.720   2.726
  261SOL    HW2 1376   0.418   1.870   2.723
  262SOL     OW 1377   1.797   1.063   2.729
  262SOL    HW1 1378   1.735   1.050   2.658
  262SOL    HW2 1379   1.742   1.069   2.808
  263SOL     OW 1380   1.232   1.538   3.353
  263SOL    HW1 1381   1.230   1.461   3.410
  263SOL    HW2 1382   1.167   1.519   3.285
  264SOL     OW 1383   0.320   0.950   2.105
  264SOL    HW1 1384   0.403   0.974   2.063
  264SOL    HW2 1385   0.295   0.868   2.063
  265SOL     OW 1386   1.468   0.733   2.589
  265SOL    HW1 1387   1.457   0.683   2.670
  265SOL    HW2 1388   1.542   0.791   2.607
  266SOL     OW 1389   1.118   1.776   2.096
  266SOL    HW1 1390   1.051   1.727   2.143
  266SOL    HW2 1391   1.137   1.723   2.019
  267SOL     OW 1392   0.207   0.300   3.342
  267SOL    HW1 1393   0.128   0.352   3.331
  267SOL    HW2 1394   0.189   0.245   3.419
  268SOL     OW 1395   1.631   1.377   1.948
  268SOL    HW1 1396   1.593   1.463   1.933
  268SOL    HW2 1397   1.560   1.316   1.930
  269SOL     OW 1398   0.466   1.741   2.184
  269SOL    HW1 1399   0.502   1.791   2.257
  269SOL    HW2 1400   0.542   1.725   2.127
  270SOL     OW 1401   1.398   0.114   2.290
  270SOL    HW1 1402   1.384   0.084   2.200
  270SOL    HW2 1403   1.493   0.121   2.299
  271SOL     OW 1404   0.252   1.790   3.099
  271SOL    HW1 1405   0.304   1.725   3.146
  271SOL    HW2 1406   0.238   1.752   3.013
  272SOL     OW 1407   0.940   1.698   2.765
  272SOL    HW1 1408   1.016   1.643   2.783
  272SOL    HW2 1409   0.892   1.652   2.696
  273SOL     OW 1410   0.386   0.697   2.342
  273SOL    HW1 1411   0.416   0.607   2.345
  273SOL    HW2 1412   0.293   0.692   2.364
  274SOL     OW 1413   0.625   0.145   1.964
  274SOL    HW1 1414   0.690   0.081   1.994
  274SOL    HW2 1415   0.585   0.104   1.888
  275SOL     OW 1416   0.881   1.518   3.056
  275SOL    HW1 1417   0.865   1.485   2.967
  275SOL    HW2 1418   0.945   1.458   3.092
  276SOL     OW 1419   1.343   0.588   3.301
  276SOL    HW1 1420   1.383   0.560   3.384
  276SOL    HW2 1421   1.377   0.676   3.287
  277SOL     OW 1422   0.808   1.403   2.792
  277SOL    HW1 1423   0.892   1.401   2.746
  277SOL    HW2 1424   0.742   1.396   2.723
  278SOL     OW 1425   0.925   0.507   2.765
  278SOL    HW1 1426   0.901   0.497   2.673
  278SOL    HW2 1427   0.963   0.423   2.790
  279SOL     OW 1428   0.547   0.061   2.372
  279SOL    HW1 1429   0.464   0.060   2.419
  279SOL    HW2 1430   0.541   0.139   2.316
  280SOL     OW 1431   1.429   1.194   1.901
  280SOL    HW1 1432   1.461   1.121   1.954
  280SOL    HW2 1433   1.343   1.214   1.938
  281SOL     OW 1434   0.303   0.046   2.049
  281SOL    HW1 1435   0.361   0.116   2.019
  281SOL    HW2 1436   0.363  -0.023   2.079
  282SOL     OW 1437   0.935   0.242   2.334
  282SOL    HW1 1438   0.900   0.284   2.255
  282SOL    HW2 1439   1.030   0.250   2.325
  283SOL     OW 1440   1.079   0.678   3.323
  283SOL    HW1 1441   1.006   0.616   3.321
  283SOL    HW2 1442   1.157   0.624   3.309
  284SOL     OW 1443   1.225   1.569   2.655
  284SOL    HW1 1444   1.247   1.639   2.593
  284SOL    HW2 1445   1.293   1.576   2.723
  285SOL     OW 1446   0.463   1.146   2.604
  285SOL    HW1 1447   0.389   1.128   2.662
  285SOL    HW2 1448   0.429   1.127   2.516
  286SOL     OW 1449   1.273   1.796   2.461
  286SOL    HW1 1450   1.313   1.859   2.401
  286SOL    HW2 1451   1.215   1.850   2.515
  287SOL     OW 1452   1.031   0.549   1.877
  287SOL    HW1 1453   0.989   0.631   1.852
  287SOL    HW2 1454   1.090   0.572   1.948
  288SOL     OW 1455   0.074   0.553   3.254
  288SOL    HW1 1456   0.163   0.553   3.219
  288SOL    HW2 1457   0.072   0.626   3.316
  289SOL     OW 1458   0.565   0.227   3.018
  289SOL    HW1 1459   0.599   0.145   3.053
  289SOL    HW2 1460   0.475   0.232   3.051
  290SOL     OW 1461   0.871   0.459   2.503
  290SOL    HW1 1462   0.827   0.516   2.440
  290SOL    HW2 1463   0.887   0.378   2.454
  291SOL     OW 1464   1.009   0.048   2.625
  291SOL    HW1 1465   0.950   0.047   2.550
  291SOL    HW2 1466   0.993  -0.035   2.670
  292SOL     OW 1467   1.433   1.166   2.723
  292SOL    HW1 1468   1.371   1.094   2.718
  292SOL    HW2 1469   1.454   1.187   2.632
  293SOL     OW 1470   1.470   0.596   2.848
  293SOL    HW1 1471   1.430   0.509   2.857
  293SOL    HW2 1472   1.534   0.600   2.920
  294SOL     OW 1473   1.849   0.825   2.242
  294SOL    HW1 1474   1.902   0.768   2.298
  294SOL    HW2 1475   1.821   0.768   2.170
  295SOL     OW 1476   0.493   1.402   2.030
  295SOL    HW1 1477   0.415   1.375   2.078
  295SOL    HW2 1478   0.467   1.402   1.938
  296SOL     OW 1479   1.666   1.269   2.518
  296SOL    HW1 1480   1.760   1.279   2.527
  296SOL    HW2 1481   1.630   1.356   2.539
  297SOL     OW 1482   1.392   0.572   1.934
  297SOL    HW1 1483   1.337   0.554   2.010
  297SOL    HW2 1484   1.478   0.539   1.959
  298SOL     OW 1485   0.526   0.261   2.187
  298SOL    HW1 1486   0.561   0.210   2.115
  298SOL    HW2 1487   0.517   0.350   2.152
  299SOL     OW 1488   1.762   1.220   3.433
  299SOL    HW1 1489   1.854   1.194   3.433
  299SOL    HW2 1490   1.761   1.308   3.469
  300SOL     OW 1491   1.067   1.352   3.201
  300SOL    HW1 1492   0.990   1.321   3.248
  300SOL    HW2 1493   1.141   1.308   3.244
  301SOL     OW 1494   1.118   1.198   2.969
  301SOL    HW1 1495   1.064   1.239   3.037
  301SOL    HW2 1496   1.081   1.230   2.886
  302SOL     OW 1497   1.636   1.102   2.940
  302SOL    HW1 1498   1.633   1.167   3.010
  302SOL    HW2 1499   1.551   1.112   2.896
  303SOL     OW 1500   0.913   0.099   3.268
  303SOL    HW1 1501   0.933   0.074   3.178
  303SOL    HW2 1502   0.994   0.138   3.301
  304SOL     OW 1503   0.707   1.057   2.234
  304SOL    HW1 1504   0.694   1.048   2.328
  304SOL    HW2 1505   0.784   1.004   2.215
  305SOL     OW 1506   0.414   0.812   3.112
  305SOL    HW1 1507   0.486   0.823   3.175
  305SOL    HW2 1508   0.376   0.727   3.134
  306SOL     OW 1509   1.272   0.381   3.129
  306SOL    HW1 1510   1.298   0.458   3.179
  306SOL    HW2 1511   1.185   0.403   3.096
  307SOL     OW 1512   0.061   1.572   3.203
  307SOL    HW1 1513   0.029   1.649   3.156
  307SOL    HW2 1514   0.156   1.582   3.205
  308SOL     OW 1515   0.361   1.102   2.358
  308SOL    HW1 1516   0.360   1.177   2.299
  308SOL    HW2 1517   0.363   1.026   2.300
  309SOL     OW 1518   0.561   0.538   2.725
  309SOL    HW1 1519   0.578   0.598   2.653
  309SOL    HW2 1520   0.615   0.571   2.797
  310SOL     OW 1521   1.248   1.347   2.251
  310SOL    HW1 1522   1.300   1.421   2.284
  310SOL    HW2 1523   1.160   1.363   2.285
  311SOL     OW 1524   1.271   1.452   3.006
  311SOL    HW1 1525   1.323   1.456   3.086
  311SOL    HW2 1526   1.217   1.374   3.017
  312SOL     OW 1527   1.583   0.632   2.335
  312SOL    HW1 1528   1.547   0.693   2.400
  312SOL    HW2 1529   1.630   0.688   2.273
  313SOL     OW 1530   0.351   1.517   3.186
  313SOL    HW1 1531   0.335   1.474   3.102
  313SOL    HW2 1532   0.445   1.533   3.188
  314SOL     OW 1533   0.402   0.748   3.463
  314SOL    HW1 1534   0.466   0.800   3.414
  314SOL    HW2 1535   0.448   0.667   3.484
  315SOL     OW 1536   1.591   0.767   3.526
  315SOL    HW1 1537   1.513   0.821   3.538
  315SOL    HW2 1538   1.652   0.822   3.477
  316SOL     OW 1539   0.580   0.870   2.893
  316SOL    HW1 1540   0.612   0.960   2.887
  316SOL    HW2 1541   0.521   0.871   2.968
  317SOL     OW 1542   1.362   0.861   2.901
  317SOL    HW1 1543   1.285   0.857   2.845
  317SOL    HW2 1544   1.394   0.771   2.906
  318SOL     OW 1545   1.212   0.529   2.135
  318SOL    HW1 1546   1.217   0.450   2.189
  318SOL    HW2 1547   1.172   0.594   2.193
  319SOL     OW 1548   0.307   0.209   3.101
  319SOL    HW1 1549   0.277   0.246   3.184
  319SOL    HW2 1550   0.277   0.118   3.103
  320SOL     OW 1551   0.044   1.308   3.138
  320SOL    HW1 1552   0.079   1.261   3.213
  320SOL    HW2 1553   0.049   1.400   3.162
  321SOL     OW 1554   0.730   0.634   2.925
  321SOL    HW1 1555   0.795   0.613   2.858
  321SOL    HW2 1556   0.702   0.723   2.904
  322SOL     OW 1557   0.297   0.062   2.485
  322SOL    HW1 1558   0.292   0.152   2.515
  322SOL    HW2 1559   0.311   0.010   2.564
  323SOL     OW 1560   1.609   0.368   2.232
  323SOL    HW1 1561   1.635   0.305   2.300
  323SOL    HW2 1562   1.584   0.447   2.281
  324SOL     OW 1563   1.025   0.762   2.827
  324SOL    HW1 1564   1.032   0.780   2.920
  324SOL    HW2 1565   0.997   0.671   2.821
  325SOL     OW 1566   1.863   1.489   3.445
  325SOL    HW1 1567   1.877   1.534   3.362
  325SOL    HW2 1568   1.911   1.542   3.509
  326SOL     OW 1569   1.535   0.273   1.988
  326SOL    HW1 1570   1.472   0.207   2.018
  326SOL    HW2 1571   1.565   0.315   2.069
  327SOL     OW 1572   1.299   0.830   1.900
  327SOL    HW1 1573   1.339   0.744   1.904
  327SOL    HW2 1574   1.325   0.865   1.814
  328SOL     OW 1575   1.065   1.334   2.712
  328SOL    HW1 1576   1.070   1.259   2.653
  328SOL    HW2 1577   1.129   1.396   2.678
  329SOL     OW 1578   0.315   0.813   2.812
  329SOL    HW1 1579   0.408   0.835   2.810
  329SOL    HW2 1580   0.312   0.726   2.852
  330SOL     OW 1581   0.338   0.519   2.870
  330SOL    HW1 1582   0.296   0.434   2.853
  330SOL    HW2 1583   0.412   0.521   2.810
  331SOL     OW 1584   1.150   0.214   3.339
  331SOL    HW1 1585   1.167   0.276   3.410
  331SOL    HW2 1586   1.189   0.254   3.262
  332SOL     OW 1587   7.505   1.326   2.053
  332SOL    HW1 1588   7.413   1.334   2.027
  332SOL    HW2 1589   7.513   1.235   2.084
  333SOL     OW 1590   0.082   1.797   2.792
  333SOL    HW1 1591   0.047   1.716   2.755
  333SOL    HW2 1592   0.172   1.800   2.760
  334SOL     OW 1593   0.502   1.572   2.766
  334SOL    HW1 1594   0.571   1.635   2.788
  334SOL    HW2 1595   0.548   1.500   2.722
  335SOL     OW 1596   0.996   0.797   3.093
  335SOL    HW1 1597   1.040   0.769   3.173
  335SOL    HW2 1598   0.906   0.765   3.103
  336SOL     OW 1599   0.031   0.540   2.978
  336SOL    HW1 1600   0.116   0.521   2.938
  336SOL    HW2 1601   0.051   0.553   3.070
  337SOL     OW 1602   0.814   0.569   2.206
  337SOL    HW1 1603   0.817   0.492   2.149
  337SOL    HW2 1604   0.734   0.614   2.180
  338SOL     OW 1605   1.644   0.599   3.055
  338SOL    HW1 1606   1.630   0.540   3.129
  338SOL    HW2 1607   1.732   0.576   3.024
  339SOL     OW 1608   0.285   1.556   0.060
  339SOL    HW1 1609   0.225   1.614   0.105
  339SOL    HW2 1610   0.249   1.468   0.074
  340SOL     OW 1611   0.686   0.459   3.128
  340SOL    HW1 1612   0.640   0.381   3.096
  340SOL    HW2 1613   0.691   0.517   3.053
  341SOL     OW 1614   0.939   1.675   3.330
  341SOL    HW1 1615   0.907   1.651   3.243
  341SOL    HW2 1616   0.946   1.770   3.328
  342SOL     OW 1617   0.471   0.496   2.052
  342SOL    HW1 1618   0.527   0.572   2.066
  342SOL    HW2 1619   0.382   0.531   2.050
  343SOL     OW 1620   0.156   1.140   3.328
  343SOL    HW1 1621   0.163   1.082   3.404
  343SOL    HW2 1622   0.169   1.083   3.253
  344SOL     OW 1623   1.336   1.054   3.093
  344SOL    HW1 1624   1.363   0.994   3.023
  344SOL    HW2 1625   1.258   1.097   3.059
  345SOL     OW 1626   1.305   0.853   2.171
  345SOL    HW1 1627   1.223   0.827   2.213
  345SOL    HW2 1628   1.288   0.843   2.078
  346SOL     OW 1629   1.760   1.750   3.012
  346SOL    HW1 1630   1.822   1.774   2.942
  346SOL    HW2 1631   1.737   1.659   2.993
  347SOL     OW 1632   1.245   1.732   2.984
  347SOL    HW1 1633   1.327   1.743   2.936
  347SOL    HW2 1634   1.240   1.638   3.002
  348SOL     OW 1635   0.080   1.255   2.879
  348SOL    HW1 1636   0.071   1.267   2.973
  348SOL    HW2 1637  -0.002   1.214   2.851
  349SOL     OW 1638   1.717   0.136   2.371
  349SOL    HW1 1639   1.798   0.124   2.322
  349SOL    HW2 1640   1.708   0.056   2.422
  350SOL     OW 1641   1.389   1.569   2.341
  350SOL    HW1 1642   1.451   1.595   2.272
  350SOL    HW2 1643   1.346   1.650   2.367
  351SOL     OW 1644   1.277   0.922   2.533
  351SOL    HW1 1645   1.348   0.858   2.535
  351SOL    HW2 1646   1.312   0.995   2.481
  352SOL     OW 1647   0.826   1.270   3.290
  352SOL    HW1 1648   0.812   1.303   3.379
  352SOL    HW2 1649   0.746   1.294   3.243
  353SOL     OW 1650   0.672   1.614   2.017
  353SOL    HW1 1651   0.680   1.623   1.922
  353SOL    HW2 1652   0.625   1.531   2.030
  354SOL     OW 1653   1.640   1.722   3.262
  354SOL    HW1 1654   1.686   1.731   3.179
  354SOL    HW2 1655   1.624   1.812   3.290
  355SOL     OW 1656   1.842   0.155   2.828
  355SOL    HW1 1657   1.870   0.088   2.766
  355SOL    HW2 1658   1.756   0.183   2.797
  356SOL     OW 1659   0.267   0.318   2.583
  356SOL    HW1 1660   0.187   0.360   2.552
  356SOL    HW2 1661   0.258   0.315   2.678
  357SOL     OW 1662   1.201   1.611   1.893
  357SOL    HW1 1663   1.197   1.519   1.922
  357SOL    HW2 1664   1.138   1.615   1.821
  358SOL     OW 1665   0.822   1.005   3.231
  358SOL    HW1 1666   0.864   1.005   3.145
  358SOL    HW2 1667   0.828   1.096   3.261
  359SOL     OW 1668   0.916   0.910   2.152
  359SOL    HW1 1669   0.978   0.942   2.086
  359SOL    HW2 1670   0.959   0.835   2.192
  360SOL     OW 1671   1.503   1.621   1.905
  360SOL    HW1 1672   1.408   1.630   1.901
  360SOL    HW2 1673   1.531   1.628   1.814
  361SOL     OW 1674   0.372   1.299   3.367
  361SOL    HW1 1675   0.360   1.376   3.312
  361SOL    HW2 1676   0.298   1.242   3.346
  362SOL     OW 1677   1.613   1.284   3.146
  362SOL    HW1 1678   1.671   1.283   3.223
  362SOL    HW2 1679   1.553   1.357   3.164
  363SOL     OW 1680   1.042   1.101   2.564
  363SOL    HW1 1681   0.974   1.050   2.607
  363SOL    HW2 1682   1.100   1.036   2.525
  364SOL     OW 1683   1.021   0.240   2.827
  364SOL    HW1 1684   1.008   0.194   2.744
  364SOL    HW2 1685   1.008   0.173   2.894
  365SOL     OW 1686   0.598   1.490   2.348
  365SOL    HW1 1687   0.632   1.435   2.277
  365SOL    HW2 1688   0.541   1.553   2.304
  366SOL     OW 1689   1.709   0.390   3.244
  366SOL    HW1 1690   1.778   0.456   3.253
  366SOL    HW2 1691   1.748   0.322   3.189
  367SOL     OW 1692   0.255   1.351   2.146
  367SOL    HW1 1693   0.160   1.348   2.128
  367SOL    HW2 1694   0.261   1.388   2.234
  368SOL     OW 1695   0.111   0.996   0.025
  368SOL    HW1 1696   0.035   0.993   0.083
  368SOL    HW2 1697   0.186   0.992   0.085
  369SOL     OW 1698   0.670   0.204   3.355
  369SOL    HW1 1699   0.753   0.179   3.315
  369SOL    HW2 1700   0.691   0.217   3.447
  370SOL     OW 1701   0.072   0.349   1.900
  370SOL    HW1 1702  -0.011   0.319   1.864
  370SOL    HW2 1703   0.100   0.419   1.840
  371SOL     OW 1704   1.433   0.850   3.262
  371SOL    HW1 1705   1.386   0.913   3.207
  371SOL    HW2 1706   1.525   0.863   3.240
  372SOL     OW 1707   0.064   0.161   2.177
  372SOL    HW1 1708   0.059   0.242   2.126
  372SOL    HW2 1709   0.152   0.128   2.159
  373SOL     OW 1710   1.182   1.343   1.979
  373SOL    HW1 1711   1.090   1.317   1.985
  373SOL    HW2 1712   1.212   1.343   2.070
  374SOL     OW 1713   0.615   0.836   3.292
  374SOL    HW1 1714   0.671   0.913   3.278
  374SOL    HW2 1715   0.676   0.763   3.300
  375SOL     OW 1716   1.488   1.771   2.829
  375SOL    HW1 1717   1.521   1.828   2.759
  375SOL    HW2 1718   1.563   1.761   2.888
  376SOL     OW 1719   0.722   0.570   0.018
  376SOL    HW1 1720   0.732   0.627   0.094
  376SOL    HW2 1721   0.767   0.490   0.043
  377SOL     OW 1722   0.389   1.739   3.421
  377SOL    HW1 1723   0.303   1.782   3.418
  377SOL    HW2 1724   0.372   1.655   3.464
  378SOL     OW 1725   1.675   0.883   3.117
  378SOL    HW1 1726   1.657   0.799   3.076
  378SOL    HW2 1727   1.669   0.947   3.046
  379SOL     OW 1728   1.222   0.322   2.316
  379SOL    HW1 1729   1.286   0.251   2.309
  379SOL    HW2 1730   1.247   0.369   2.396
  380SOL     OW 1731   0.594   0.744   2.522
  380SOL    HW1 1732   0.635   0.828   2.504
  380SOL    HW2 1733   0.517   0.741   2.464
  381SOL     OW 1734   1.744   0.933   3.376
  381SOL    HW1 1735   1.750   1.028   3.390
  381SOL    HW2 1736   1.726   0.924   3.282
  382SOL     OW 1737   0.862   1.371   1.885
  382SOL    HW1 1738   0.820   1.393   1.968
  382SOL    HW2 1739   0.888   1.455   1.848
  383SOL     OW 1740   0.658   1.795   2.816
  383SOL    HW1 1741   0.630   1.883   2.791
  383SOL    HW2 1742   0.753   1.795   2.805
  384SOL     OW 1743   0.863   0.960   2.720
  384SOL    HW1 1744   0.914   0.893   2.765
  384SOL    HW2 1745   0.833   1.018   2.790
  385SOL     OW 1746   1.080   0.985   1.950
  385SOL    HW1 1747   1.061   1.036   1.871
  385SOL    HW2 1748   1.158   0.935   1.927
  386SOL     OW 1749   1.861   1.562   2.709
  386SOL    HW1 1750   1.786   1.550   2.650
  386SOL    HW2 1751   1.853   1.491   2.773
  387SOL     OW 1752   0.079   1.239   2.518
  387SOL    HW1 1753   0.080   1.192   2.602
  387SOL    HW2 1754   0.153   1.202   2.469
  388SOL     OW 1755   0.652   1.394   3.466
  388SOL    HW1 1756   0.590   1.341   3.516
  388SOL    HW2 1757   0.654   1.478   3.512
  389SOL     OW 1758   1.848   0.215   3.106
  389SOL    HW1 1759   1.814   0.128   3.126
  389SOL    HW2 1760   1.842   0.221   3.010
  390SOL     OW 1761   0.428   0.430   2.383
  390SOL    HW1 1762   0.457   0.357   2.328
  390SOL    HW2 1763   0.388   0.388   2.459
  391SOL     OW 1764   1.703   1.493   2.967
  391SOL    HW1 1765   1.620   1.461   2.931
  391SOL    HW2 1766   1.724   1.430   3.036
  392SOL     OW 1767   0.321   0.548   3.149
  392SOL    HW1 1768   0.374   0.494   3.208
  392SOL    HW2 1769   0.352   0.524   3.061
  393SOL     OW 1770   0.820   1.579   2.546
  393SOL    HW1 1771   0.829   1.607   2.456
  393SOL    HW2 1772   0.739   1.528   2.548
  394SOL     OW 1773   1.433   0.219   2.979
  394SOL    HW1 1774   1.475   0.154   3.035
  394SOL    HW2 1775   1.379   0.271   3.039
  395SOL     OW 1776   0.989   0.037   3.009
  395SOL    HW1 1777   0.946  -0.049   3.002
  395SOL    HW2 1778   1.082   0.017   3.010
  396SOL     OW 1779   0.771   1.332   2.167
  396SOL    HW1 1780   0.732   1.244   2.177
  396SOL    HW2 1781   0.855   1.326   2.211
  397SOL     OW 1782   0.619   1.564   3.144
  397SOL    HW1 1783   0.622   1.643   3.198
  397SOL    HW2 1784   0.706   1.558   3.105
  398SOL     OW 1785   1.357   0.049   2.027
  398SOL    HW1 1786   1.378   0.012   1.941
  398SOL    HW2 1787   1.266   0.024   2.043
  399SOL     OW 1788   1.299   0.457   2.549
  399SOL    HW1 1789   1.243   0.534   2.558
  399SOL    HW2 1790   1.301   0.419   2.636
  400SOL     OW 1791   1.596   0.218   2.742
  400SOL    HW1 1792   1.519   0.224   2.800
  400SOL    HW2 1793   1.590   0.296   2.687
  401SOL     OW 1794   0.041   1.075   2.161
  401SOL    HW1 1795   0.135   1.056   2.154
  401SOL    HW2 1796   0.002   0.993   2.189
  402SOL     OW 1797   0.876   1.644   2.208
  402SOL    HW1 1798   0.806   1.625   2.146
  402SOL    HW2 1799   0.846   1.723   2.255
  403SOL     OW 1800   0.232   2.478   0.129
  403SOL    HW1 1801   0.139   2.487   0.151
  403SOL    HW2 1802   0.232   2.457   0.036
  404SOL     OW 1803   0.216   2.136   0.990
  404SOL    HW1 1804   0.251   2.114   1.076
  404SOL    HW2 1805   0.130   2.094   0.987
  405SOL     OW 1806   7.518   2.243   0.639
  405SOL    HW1 1807   7.437   2.264   0.686
  405SOL    HW2 1808   7.497   2.165   0.588
  406SOL     OW 1809   0.567   3.138   1.168
  406SOL    HW1 1810   0.479   3.139   1.132
  406SOL    HW2 1811   0.579   3.225   1.205
  407SOL     OW 1812   1.555   3.371   0.701
  407SOL    HW1 1813   1.508   3.361   0.784
  407SOL    HW2 1814   1.486   3.381   0.636
  408SOL     OW 1815   1.130   2.563   0.710
  408SOL    HW1 1816   1.183   2.641   0.693
  408SOL    HW2 1817   1.082   2.584   0.790
  409SOL     OW 1818   1.767   2.467   0.228
  409SOL    HW1 1819   1.731   2.464   0.139
  409SOL    HW2 1820   1.727   2.392   0.272
  410SOL     OW 1821   0.763   3.007   1.030
  410SOL    HW1 1822   0.692   3.037   1.087
  410SOL    HW2 1823   0.795   3.087   0.989
  411SOL     OW 1824   0.854   2.653   1.821
  411SOL    HW1 1825   0.848   2.726   1.883
  411SOL    HW2 1826   0.878   2.694   1.738
  412SOL     OW 1827   0.686   2.875   0.655
  412SOL    HW1 1828   0.749   2.856   0.725
  412SOL    HW2 1829   0.616   2.923   0.699
  413SOL     OW 1830   0.699   3.017   1.805
  413SOL    HW1 1831   0.749   3.097   1.824
  413SOL    HW2 1832   0.615   3.049   1.772
  414SOL     OW 1833   0.332   3.296   1.067
  414SOL    HW1 1834   0.261   3.262   1.012
  414SOL    HW2 1835   0.386   3.346   1.007
  415SOL     OW 1836   1.433   3.335   1.378
  415SOL    HW1 1837   1.471   3.423   1.378
  415SOL    HW2 1838   1.438   3.307   1.469
  416SOL     OW 1839   0.442   2.259   1.496
  416SOL    HW1 1840   0.518   2.200   1.500
  416SOL    HW2 1841   0.367   2.200   1.504
  417SOL     OW 1842   1.611   2.312   0.737
  417SOL    HW1 1843   1.536   2.347   0.689
  417SOL    HW2 1844   1.643   2.386   0.788
  418SOL     OW 1845   0.222   3.574   0.477
  418SOL    HW1 1846   0.250   3.650   0.528
  418SOL    HW2 1847   0.281   3.571   0.402
  419SOL     OW 1848   1.133   3.202   1.690
  419SOL    HW1 1849   1.172   3.199   1.778
  419SOL    HW2 1850   1.080   3.122   1.685
  420SOL     OW 1851   0.229   3.299   0.535
  420SOL    HW1 1852   0.209   3.392   0.541
  420SOL    HW2 1853   0.161   3.256   0.588
  421SOL     OW 1854   0.242   2.950   0.885
  421SOL    HW1 1855   0.250   2.869   0.935
  421SOL    HW2 1856   0.190   3.008   0.941
  422SOL     OW 1857   0.619   3.651   1.434
  422SOL    HW1 1858   0.534   3.636   1.477
  422SOL    HW2 1859   0.642   3.741   1.460
  423SOL     OW 1860   0.596   2.832   0.135
  423SOL    HW1 1861   0.616   2.897   0.068
  423SOL    HW2 1862   0.649   2.857   0.211
  424SOL     OW 1863   1.596   1.978   1.473
  424SOL    HW1 1864   1.581   2.053   1.415
  424SOL    HW2 1865   1.589   2.014   1.561
  425SOL     OW 1866   0.115   2.508   0.560
  425SOL    HW1 1867   0.084   2.421   0.582
  425SOL    HW2 1868   0.107   2.558   0.642
  426SOL     OW 1869   1.839   3.630   0.350
  426SOL    HW1 1870   1.893   3.600   0.423
  426SOL    HW2 1871   1.873   3.717   0.329
  427SOL     OW 1872   0.026   3.470   0.138
  427SOL    HW1 1873   0.006   3.377   0.154
  427SOL    HW2 1874  -0.016   3.516   0.210
  428SOL     OW 1875   1.690   2.781   0.629
  428SOL    HW1 1876   1.780   2.749   0.616
  428SOL    HW2 1877   1.673   2.834   0.551
  429SOL     OW 1878   1.645   2.968   0.434
  429SOL    HW1 1879   1.725   2.984   0.383
  429SOL    HW2 1880   1.652   3.029   0.508
  430SOL     OW 1881   0.119   2.602   1.590
  430SOL    HW1 1882   0.209   2.608   1.623
  430SOL    HW2 1883   0.089   2.693   1.587
  431SOL     OW 1884   0.612   3.237   0.733
  431SOL    HW1 1885   0.566   3.153   0.739
  431SOL    HW2 1886   0.593   3.267   0.644
  432SOL     OW 1887   1.284   3.089   1.430
  432SOL    HW1 1888   1.325   3.028   1.368
  432SOL    HW2 1889   1.342   3.090   1.505
  433SOL     OW 1890   0.808   1.860   0.500
  433SOL    HW1 1891   0.849   1.947   0.493
  433SOL    HW2 1892   0.715   1.879   0.513
  434SOL     OW 1893   0.195   2.835   1.264
  434SOL    HW1 1894   0.278   2.790   1.250
  434SOL    HW2 1895   0.129   2.772   1.236
  435SOL     OW 1896   1.526   2.859   0.195
  435SOL    HW1 1897   1.463   2.790   0.219
  435SOL    HW2 1898   1.567   2.883   0.277
  436SOL     OW 1899   1.182   3.663   1.618
  436SOL    HW1 1900   1.211   3.716   1.544
  436SOL    HW2 1901   1.193   3.572   1.588
  437SOL     OW 1902   0.323   2.114   1.798
  437SOL    HW1 1903   0.380   2.190   1.815
  437SOL    HW2 1904   0.239   2.139   1.836
  438SOL     OW 1905   1.455   3.284   0.942
  438SOL    HW1 1906   1.400   3.292   1.020
  438SOL    HW2 1907   1.452   3.191   0.920
  439SOL     OW 1908   1.663   3.586   0.576
  439SOL    HW1 1909   1.633   3.557   0.490
  439SOL    HW2 1910   1.640   3.513   0.634
  440SOL     OW 1911   0.597   2.588   0.261
  440SOL    HW1 1912   0.609   2.666   0.207
  440SOL    HW2 1913   0.531   2.614   0.326
  441SOL     OW 1914   1.282   2.205   0.934
  441SOL    HW1 1915   1.194   2.168   0.937
  441SOL    HW2 1916   1.332   2.155   0.998
  442SOL     OW 1917   1.579   3.528   0.309
  442SOL    HW1 1918   1.666   3.568   0.306
  442SOL    HW2 1919   1.561   3.505   0.218
  443SOL     OW 1920   0.799   2.474   1.457
  443SOL    HW1 1921   0.766   2.457   1.545
  443SOL    HW2 1922   0.751   2.412   1.402
  444SOL     OW 1923   1.393   2.334   1.677
  444SOL    HW1 1924   1.387   2.377   1.762
  444SOL    HW2 1925   1.463   2.268   1.687
  445SOL     OW 1926   0.963   2.752   1.578
  445SOL    HW1 1927   1.016   2.679   1.546
  445SOL    HW2 1928   0.917   2.784   1.501
  446SOL     OW 1929   0.992   2.274   1.241
  446SOL    HW1 1930   0.913   2.301   1.287
  446SOL    HW2 1931   0.960   2.225   1.165
  447SOL     OW 1932   1.047   2.562   0.428
  447SOL    HW1 1933   1.061   2.556   0.523
  447SOL    HW2 1934   0.965   2.515   0.413
  448SOL     OW 1935   0.085   2.678   0.775
  448SOL    HW1 1936   0.171   2.669   0.817
  448SOL    HW2 1937   0.049   2.759   0.811
  449SOL     OW 1938   0.129   3.687   1.573
  449SOL    HW1 1939   0.122   3.674   1.668
  449SOL    HW2 1940   0.042   3.716   1.546
  450SOL     OW 1941   0.868   2.216   0.189
  450SOL    HW1 1942   0.937   2.263   0.142
  450SOL    HW2 1943   0.882   2.124   0.167
  451SOL     OW 1944   1.715   2.444   1.829
  451SOL    HW1 1945   1.684   2.525   1.790
  451SOL    HW2 1946   1.725   2.383   1.756
  452SOL     OW 1947   1.370   3.005   0.543
  452SOL    HW1 1948   1.447   2.986   0.491
  452SOL    HW2 1949   1.320   3.068   0.490
  453SOL     OW 1950   0.547   2.052   0.889
  453SOL    HW1 1951   0.549   2.068   0.983
  453SOL    HW2 1952   0.553   2.139   0.849
  454SOL     OW 1953   1.010   3.311   0.476
  454SOL    HW1 1954   0.966   3.382   0.428
  454SOL    HW2 1955   1.003   3.337   0.568
  455SOL     OW 1956   0.351   3.664   0.852
  455SOL    HW1 1957   0.399   3.582   0.864
  455SOL    HW2 1958   0.418   3.732   0.861
  456SOL     OW 1959   1.795   2.918   0.873
  456SOL    HW1 1960   1.737   2.914   0.797
  456SOL    HW2 1961   1.739   2.949   0.944
  457SOL     OW 1962   1.210   3.414   1.517
  457SOL    HW1 1963   1.219   3.335   1.570
  457SOL    HW2 1964   1.175   3.383   1.434
  458SOL     OW 1965   0.314   2.813   0.225
  458SOL    HW1 1966   0.403   2.834   0.197
  458SOL    HW2 1967   0.305   2.719   0.206
  459SOL     OW 1968   1.468   2.595   0.727
  459SOL    HW1 1969   1.457   2.545   0.808
  459SOL    HW2 1970   1.542   2.653   0.744
  460SOL     OW 1971   0.462   3.123   1.736
  460SOL    HW1 1972   0.428   3.130   1.646
  460SOL    HW2 1973   0.384   3.121   1.791
  461SOL     OW 1974   1.104   3.646   0.234
  461SOL    HW1 1975   1.051   3.590   0.291
  461SOL    HW2 1976   1.136   3.587   0.165
  462SOL     OW 1977   0.199   2.145   1.497
  462SOL    HW1 1978   0.120   2.199   1.488
  462SOL    HW2 1979   0.185   2.096   1.577
  463SOL     OW 1980   1.628   3.240   0.096
  463SOL    HW1 1981   1.589   3.325   0.073
  463SOL    HW2 1982   1.563   3.176   0.067
  464SOL     OW 1983   0.467   3.601   0.324
  464SOL    HW1 1984   0.501   3.654   0.396
  464SOL    HW2 1985   0.542   3.590   0.265
  465SOL     OW 1986   1.401   1.971   0.428
  465SOL    HW1 1987   1.386   1.943   0.337
  465SOL    HW2 1988   1.496   1.979   0.434
  466SOL     OW 1989   0.252   3.652   1.237
  466SOL    HW1 1990   0.304   3.587   1.284
  466SOL    HW2 1991   0.239   3.614   1.150
  467SOL     OW 1992   0.942   3.559   0.904
  467SOL    HW1 1993   1.017   3.501   0.919
  467SOL    HW2 1994   0.891   3.516   0.835
  468SOL     OW 1995   0.385   2.560   0.479
  468SOL    HW1 1996   0.417   2.469   0.483
  468SOL    HW2 1997   0.293   2.554   0.503
  469SOL     OW 1998   1.541   2.090   1.725
  469SOL    HW1 1999   1.546   2.112   1.818
  469SOL    HW2 2000   1.476   2.020   1.721
  470SOL     OW 2001   0.615   1.980   0.114
  470SOL    HW1 2002   0.708   1.960   0.120
  470SOL    HW2 2003   0.590   1.953   0.026
  471SOL     OW 2004   0.773   2.131   1.749
  471SOL    HW1 2005   0.841   2.070   1.775
  471SOL    HW2 2006   0.715   2.138   1.825
  472SOL     OW 2007   0.882   3.382   1.192
  472SOL    HW1 2008   0.865   3.346   1.105
  472SOL    HW2 2009   0.945   3.321   1.231
  473SOL     OW 2010   1.345   2.451   1.432
  473SOL    HW1 2011   1.375   2.416   1.516
  473SOL    HW2 2012   1.376   2.541   1.431
  474SOL     OW 2013   0.808   3.266   0.930
  474SOL    HW1 2014   0.892   3.262   0.885
  474SOL    HW2 2015   0.742   3.258   0.860
  475SOL     OW 2016   0.925   2.369   0.903
  475SOL    HW1 2017   0.901   2.358   0.811
  475SOL    HW2 2018   0.963   2.285   0.928
  476SOL     OW 2019   0.546   1.924   0.510
  476SOL    HW1 2020   0.465   1.926   0.561
  476SOL    HW2 2021   0.543   2.003   0.455
  477SOL     OW 2022   1.425   3.058   0.033
  477SOL    HW1 2023   1.464   2.986   0.083
  477SOL    HW2 2024   1.341   3.075   0.075
  478SOL     OW 2025   0.292   1.904   0.180
  478SOL    HW1 2026   0.350   1.975   0.151
  478SOL    HW2 2027   0.351   1.838   0.216
  479SOL     OW 2028   0.934   2.101   0.472
  479SOL    HW1 2029   0.899   2.144   0.393
  479SOL    HW2 2030   1.029   2.110   0.464
  480SOL     OW 2031   1.079   2.541   1.461
  480SOL    HW1 2032   1.006   2.479   1.467
  480SOL    HW2 2033   1.156   2.485   1.448
  481SOL     OW 2034   1.223   3.436   0.797
  481SOL    HW1 2035   1.250   3.500   0.731
  481SOL    HW2 2036   1.295   3.434   0.860
  482SOL     OW 2037   0.463   3.008   0.742
  482SOL    HW1 2038   0.389   2.990   0.800
  482SOL    HW2 2039   0.429   2.989   0.654
  483SOL     OW 2040   1.270   3.658   0.595
  483SOL    HW1 2041   1.314   3.722   0.538
  483SOL    HW2 2042   1.217   3.712   0.654
  484SOL     OW 2043   1.020   2.406   0.034
  484SOL    HW1 2044   1.002   2.486  -0.016
  484SOL    HW2 2045   1.096   2.428   0.088
  485SOL     OW 2046   0.073   2.418   1.389
  485SOL    HW1 2047   0.163   2.417   1.356
  485SOL    HW2 2048   0.072   2.488   1.454
  486SOL     OW 2049   0.564   2.087   1.157
  486SOL    HW1 2050   0.598   2.005   1.193
  486SOL    HW2 2051   0.474   2.092   1.189
  487SOL     OW 2052   0.870   2.320   0.641
  487SOL    HW1 2053   0.828   2.378   0.578
  487SOL    HW2 2054   0.888   2.240   0.592
  488SOL     OW 2055   1.014   1.911   0.755
  488SOL    HW1 2056   0.952   1.904   0.683
  488SOL    HW2 2057   0.995   1.836   0.811
  489SOL     OW 2058   1.436   3.028   0.859
  489SOL    HW1 2059   1.373   2.956   0.856
  489SOL    HW2 2060   1.452   3.049   0.767
  490SOL     OW 2061   1.471   2.458   0.987
  490SOL    HW1 2062   1.429   2.372   0.994
  490SOL    HW2 2063   1.533   2.460   1.060
  491SOL     OW 2064   1.852   2.685   0.378
  491SOL    HW1 2065   1.901   2.628   0.436
  491SOL    HW2 2066   1.820   2.628   0.309
  492SOL     OW 2067   0.494   3.254   0.160
  492SOL    HW1 2068   0.423   3.231   0.220
  492SOL    HW2 2069   0.449   3.280   0.079
  493SOL     OW 2070   1.667   3.130   0.658
  493SOL    HW1 2071   1.761   3.144   0.664
  493SOL    HW2 2072   1.629   3.216   0.677
  494SOL     OW 2073   1.384   2.435   0.071
  494SOL    HW1 2074   1.334   2.414   0.151
  494SOL    HW2 2075   1.471   2.399   0.087
  495SOL     OW 2076   0.528   2.123   0.327
  495SOL    HW1 2077   0.559   2.069   0.254
  495SOL    HW2 2078   0.517   2.210   0.288
  496SOL     OW 2079   1.756   3.086   1.587
  496SOL    HW1 2080   1.845   3.055   1.573
  496SOL    HW2 2081   1.766   3.179   1.610
  497SOL     OW 2082   1.065   3.214   1.336
  497SOL    HW1 2083   0.989   3.185   1.387
  497SOL    HW2 2084   1.140   3.174   1.380
  498SOL     OW 2085   1.596   3.488   1.634
  498SOL    HW1 2086   1.613   3.533   1.551
  498SOL    HW2 2087   1.680   3.448   1.657
  499SOL     OW 2088   1.116   3.058   1.107
  499SOL    HW1 2089   1.066   3.102   1.175
  499SOL    HW2 2090   1.080   3.093   1.025
  500SOL     OW 2091   0.917   1.959   1.403
  500SOL    HW1 2092   0.940   1.939   1.312
  500SOL    HW2 2093   0.994   2.002   1.439
  501SOL     OW 2094   0.983   2.976   1.720
  501SOL    HW1 2095   0.889   2.986   1.734
  501SOL    HW2 2096   0.990   2.898   1.664
  502SOL     OW 2097   0.708   2.920   0.372
  502SOL    HW1 2098   0.696   2.911   0.467
  502SOL    HW2 2099   0.785   2.867   0.353
  503SOL     OW 2100   0.414   2.674   1.250
  503SOL    HW1 2101   0.486   2.685   1.312
  503SOL    HW2 2102   0.377   2.589   1.271
  504SOL     OW 2103   1.271   2.244   1.267
  504SOL    HW1 2104   1.298   2.320   1.318
  504SOL    HW2 2105   1.184   2.266   1.235
  505SOL     OW 2106   0.061   3.432   1.342
  505SOL    HW1 2107   0.028   3.510   1.297
  505SOL    HW2 2108   0.155   3.444   1.345
  506SOL     OW 2109   0.360   2.965   0.496
  506SOL    HW1 2110   0.359   3.040   0.436
  506SOL    HW2 2111   0.365   2.888   0.439
  507SOL     OW 2112   0.561   2.400   0.863
  507SOL    HW1 2113   0.578   2.460   0.791
  507SOL    HW2 2114   0.615   2.432   0.935
  508SOL     OW 2115   1.248   3.208   0.391
  508SOL    HW1 2116   1.300   3.283   0.423
  508SOL    HW2 2117   1.160   3.225   0.423
  509SOL     OW 2118   1.275   3.306   1.146
  509SOL    HW1 2119   1.318   3.311   1.231
  509SOL    HW2 2120   1.213   3.233   1.155
  510SOL     OW 2121   1.585   2.495   0.474
  510SOL    HW1 2122   1.546   2.554   0.538
  510SOL    HW2 2123   1.627   2.553   0.410
  511SOL     OW 2124   0.350   3.379   1.323
  511SOL    HW1 2125   0.336   3.337   1.239
  511SOL    HW2 2126   0.444   3.396   1.327
  512SOL     OW 2127   0.409   2.609   1.601
  512SOL    HW1 2128   0.470   2.656   1.544
  512SOL    HW2 2129   0.451   2.525   1.617
  513SOL     OW 2130   1.590   2.636   1.672
  513SOL    HW1 2131   1.504   2.678   1.666
  513SOL    HW2 2132   1.644   2.682   1.609
  514SOL     OW 2133   1.000   1.971   1.762
  514SOL    HW1 2134   1.036   2.048   1.719
  514SOL    HW2 2135   1.050   1.898   1.726
  515SOL     OW 2136   0.502   1.911   1.743
  515SOL    HW1 2137   0.462   1.855   1.676
  515SOL    HW2 2138   0.435   1.978   1.761
  516SOL     OW 2139   0.579   2.732   1.030
  516SOL    HW1 2140   0.613   2.822   1.025
  516SOL    HW2 2141   0.521   2.733   1.106
  517SOL     OW 2142   1.364   2.722   1.039
  517SOL    HW1 2143   1.287   2.721   0.984
  517SOL    HW2 2144   1.392   2.630   1.043
  518SOL     OW 2145   1.210   2.389   0.274
  518SOL    HW1 2146   1.216   2.311   0.329
  518SOL    HW2 2147   1.173   2.456   0.332
  519SOL     OW 2148   0.304   2.069   1.240
  519SOL    HW1 2149   0.273   2.101   1.324
  519SOL    HW2 2150   0.280   1.976   1.240
  520SOL     OW 2151   0.041   3.169   1.277
  520SOL    HW1 2152   0.080   3.123   1.351
  520SOL    HW2 2153   0.050   3.262   1.299
  521SOL     OW 2154   0.730   2.496   1.063
  521SOL    HW1 2155   0.795   2.475   0.997
  521SOL    HW2 2156   0.702   2.585   1.042
  522SOL     OW 2157   1.733   2.814   1.852
  522SOL    HW1 2158   1.681   2.779   1.779
  522SOL    HW2 2159   1.669   2.831   1.921
  523SOL     OW 2160   0.302   1.929   0.622
  523SOL    HW1 2161   0.288   2.019   0.652
  523SOL    HW2 2162   0.303   1.877   0.702
  524SOL     OW 2163   1.611   2.231   0.371
  524SOL    HW1 2164   1.635   2.166   0.437
  524SOL    HW2 2165   1.584   2.308   0.420
  525SOL     OW 2166   1.025   2.624   0.965
  525SOL    HW1 2167   1.032   2.642   1.059
  525SOL    HW2 2168   0.998   2.533   0.959
  526SOL     OW 2169   0.980   3.428   1.709
  526SOL    HW1 2170   0.965   3.473   1.626
  526SOL    HW2 2171   1.023   3.346   1.685
  527SOL     OW 2172   1.856   3.384   1.605
  527SOL    HW1 2173   1.882   3.399   1.514
  527SOL    HW2 2174   1.937   3.397   1.655
  528SOL     OW 2175   0.350   2.775   1.805
  528SOL    HW1 2176   0.432   2.797   1.850
  528SOL    HW2 2177   0.376   2.716   1.735
  529SOL     OW 2178   1.540   2.136   0.123
  529SOL    HW1 2179   1.477   2.068   0.146
  529SOL    HW2 2180   1.565   2.175   0.207
  530SOL     OW 2181   1.302   2.693   0.035
  530SOL    HW1 2182   1.336   2.603   0.043
  530SOL    HW2 2183   1.319   2.717  -0.056
  531SOL     OW 2184   1.064   3.197   0.850
  531SOL    HW1 2185   1.070   3.121   0.791
  531SOL    HW2 2186   1.130   3.258   0.817
  532SOL     OW 2187   0.315   2.675   0.950
  532SOL    HW1 2188   0.408   2.697   0.948
  532SOL    HW2 2189   0.311   2.588   0.990
  533SOL     OW 2190   0.336   2.377   1.009
  533SOL    HW1 2191   0.295   2.292   0.990
  533SOL    HW2 2192   0.411   2.381   0.949
  534SOL     OW 2193   1.136   2.244   1.676
  534SOL    HW1 2194   1.094   2.299   1.742
  534SOL    HW2 2195   1.225   2.277   1.671
  535SOL     OW 2196   1.159   2.067   1.471
  535SOL    HW1 2197   1.154   2.129   1.544
  535SOL    HW2 2198   1.191   2.120   1.398
  536SOL     OW 2199   7.504   3.193   0.194
  536SOL    HW1 2200   7.414   3.199   0.165
  536SOL    HW2 2201   7.516   3.101   0.218
  537SOL     OW 2202   0.082   3.659   0.930
  537SOL    HW1 2203   0.047   3.578   0.893
  537SOL    HW2 2204   0.172   3.662   0.899
  538SOL     OW 2205   0.502   3.434   0.904
  538SOL    HW1 2206   0.571   3.497   0.926
  538SOL    HW2 2207   0.548   3.362   0.860
  539SOL     OW 2208   0.996   2.658   1.232
  539SOL    HW1 2209   1.041   2.630   1.312
  539SOL    HW2 2210   0.906   2.626   1.242
  540SOL     OW 2211   0.031   2.406   1.115
  540SOL    HW1 2212   0.115   2.382   1.075
  540SOL    HW2 2213   0.051   2.414   1.209
  541SOL     OW 2214   0.188   2.378   1.722
  541SOL    HW1 2215   0.247   2.347   1.654
  541SOL    HW2 2216   0.136   2.446   1.680
  542SOL     OW 2217   1.375   2.807   1.662
  542SOL    HW1 2218   1.397   2.900   1.668
  542SOL    HW2 2219   1.374   2.788   1.568
  543SOL     OW 2220   0.815   2.432   0.344
  543SOL    HW1 2221   0.817   2.354   0.289
  543SOL    HW2 2222   0.731   2.474   0.322
  544SOL     OW 2223   1.642   2.465   1.198
  544SOL    HW1 2224   1.624   2.402   1.268
  544SOL    HW2 2225   1.723   2.434   1.157
  545SOL     OW 2226   0.256   3.420   1.738
  545SOL    HW1 2227   0.222   3.478   1.806
  545SOL    HW2 2228   0.244   3.332   1.773
  546SOL     OW 2229   0.684   2.321   1.267
  546SOL    HW1 2230   0.640   2.243   1.234
  546SOL    HW2 2231   0.691   2.379   1.191
  547SOL     OW 2232   0.930   3.539   1.465
  547SOL    HW1 2233   0.904   3.519   1.375
  547SOL    HW2 2234   0.942   3.634   1.465
  548SOL     OW 2235   0.470   2.356   0.198
  548SOL    HW1 2236   0.526   2.434   0.202
  548SOL    HW2 2237   0.381   2.391   0.191
  549SOL     OW 2238   0.153   3.002   1.466
  549SOL    HW1 2239   0.164   2.946   1.543
  549SOL    HW2 2240   0.168   2.944   1.391
  550SOL     OW 2241   1.341   2.915   1.228
  550SOL    HW1 2242   1.362   2.856   1.156
  550SOL    HW2 2243   1.261   2.960   1.199
  551SOL     OW 2244   1.306   2.710   0.311
  551SOL    HW1 2245   1.222   2.689   0.351
  551SOL    HW2 2246   1.290   2.707   0.217
  552SOL     OW 2247   0.080   3.117   1.017
  552SOL    HW1 2248   0.070   3.128   1.112
  552SOL    HW2 2249  -0.001   3.076   0.989
  553SOL     OW 2250   0.679   3.523   1.718
  553SOL    HW1 2251   0.632   3.606   1.721
  553SOL    HW2 2252   0.739   3.531   1.643
  554SOL     OW 2253   0.906   1.953   0.129
  554SOL    HW1 2254   0.954   1.940   0.047
  554SOL    HW2 2255   0.955   1.903   0.194
  555SOL     OW 2256   1.720   1.999   0.518
  555SOL    HW1 2257   1.793   1.985   0.458
  555SOL    HW2 2258   1.702   1.913   0.556
  556SOL     OW 2259   1.388   3.431   0.479
  556SOL    HW1 2260   1.451   3.456   0.411
  556SOL    HW2 2261   1.347   3.513   0.505
  557SOL     OW 2262   0.132   3.660   1.845
  557SOL    HW1 2263   0.086   3.593   1.896
  557SOL    HW2 2264   0.186   3.705   1.909
  558SOL     OW 2265   1.277   2.784   0.671
  558SOL    HW1 2266   1.348   2.720   0.672
  558SOL    HW2 2267   1.311   2.857   0.619
  559SOL     OW 2268   0.824   3.132   1.430
  559SOL    HW1 2269   0.807   3.170   1.516
  559SOL    HW2 2270   0.747   3.155   1.378
  560SOL     OW 2271   0.675   3.474   0.161
  560SOL    HW1 2272   0.670   3.494   0.067
  560SOL    HW2 2273   0.624   3.394   0.171
  561SOL     OW 2274   1.839   2.035   0.966
  561SOL    HW1 2275   1.869   1.951   0.933
  561SOL    HW2 2276   1.751   2.045   0.931
  562SOL     OW 2277   0.268   2.183   0.721
  562SOL    HW1 2278   0.186   2.222   0.691
  562SOL    HW2 2279   0.256   2.171   0.815
  563SOL     OW 2280   1.186   3.477   0.053
  563SOL    HW1 2281   1.191   3.385   0.076
  563SOL    HW2 2282   1.161   3.478  -0.039
  564SOL     OW 2283   0.825   2.867   1.371
  564SOL    HW1 2284   0.865   2.867   1.285
  564SOL    HW2 2285   0.828   2.958   1.400
  565SOL     OW 2286   0.916   2.772   0.289
  565SOL    HW1 2287   0.978   2.807   0.225
  565SOL    HW2 2288   0.961   2.698   0.329
  566SOL     OW 2289   1.504   3.482   0.044
  566SOL    HW1 2290   1.410   3.494   0.037
  566SOL    HW2 2291   1.537   3.495  -0.046
  567SOL     OW 2292   0.370   3.157   1.491
  567SOL    HW1 2293   0.356   3.239   1.445
  567SOL    HW2 2294   0.292   3.105   1.474
  568SOL     OW 2295   1.042   2.963   0.702
  568SOL    HW1 2296   0.974   2.911   0.745
  568SOL    HW2 2297   1.100   2.898   0.662
  569SOL     OW 2298   1.018   2.101   0.966
  569SOL    HW1 2299   1.009   2.054   0.883
  569SOL    HW2 2300   1.012   2.032   1.032
  570SOL     OW 2301   0.598   3.352   0.486
  570SOL    HW1 2302   0.633   3.297   0.416
  570SOL    HW2 2303   0.541   3.415   0.442
  571SOL     OW 2304   1.712   2.250   1.380
  571SOL    HW1 2305   1.783   2.314   1.381
  571SOL    HW2 2306   1.744   2.179   1.323
  572SOL     OW 2307   0.258   3.212   0.288
  572SOL    HW1 2308   0.166   3.207   0.262
  572SOL    HW2 2309   0.257   3.250   0.375
  573SOL     OW 2310   0.105   2.874   1.724
  573SOL    HW1 2311   0.032   2.845   1.779
  573SOL    HW2 2312   0.183   2.842   1.768
  574SOL     OW 2313   0.670   2.060   1.495
  574SOL    HW1 2314   0.755   2.044   1.453
  574SOL    HW2 2315   0.691   2.079   1.586
  575SOL     OW 2316   0.069   2.204   0.037
  575SOL    HW1 2317  -0.022   2.187   0.010
  575SOL    HW2 2318   0.093   2.283  -0.012
  576SOL     OW 2319   1.425   2.720   1.408
  576SOL    HW1 2320   1.377   2.775   1.346
  576SOL    HW2 2321   1.515   2.721   1.376
  577SOL     OW 2322   0.065   2.022   0.315
  577SOL    HW1 2323   0.058   2.103   0.265
  577SOL    HW2 2324   0.151   1.986   0.292
  578SOL     OW 2325   1.185   3.212   0.119
  578SOL    HW1 2326   1.094   3.183   0.116
  578SOL    HW2 2327   1.211   3.202   0.211
  579SOL     OW 2328   0.615   2.698   1.430
  579SOL    HW1 2329   0.670   2.775   1.417
  579SOL    HW2 2330   0.677   2.625   1.438
  580SOL     OW 2331   1.489   3.632   0.921
  580SOL    HW1 2332   1.537   3.703   0.876
  580SOL    HW2 2333   1.539   3.618   1.002
  581SOL     OW 2334   0.715   2.427   1.709
  581SOL    HW1 2335   0.743   2.491   1.774
  581SOL    HW2 2336   0.767   2.348   1.728
  582SOL     OW 2337   1.461   3.073   1.633
  582SOL    HW1 2338   1.452   3.080   1.728
  582SOL    HW2 2339   1.555   3.078   1.618
  583SOL     OW 2340   0.386   3.603   1.561
  583SOL    HW1 2341   0.298   3.639   1.554
  583SOL    HW2 2342   0.374   3.516   1.600
  584SOL     OW 2343   1.645   2.734   1.261
  584SOL    HW1 2344   1.641   2.645   1.225
  584SOL    HW2 2345   1.649   2.791   1.185
  585SOL     OW 2346   1.222   2.183   0.455
  585SOL    HW1 2347   1.287   2.113   0.445
  585SOL    HW2 2348   1.248   2.230   0.534
  586SOL     OW 2349   0.594   2.605   0.660
  586SOL    HW1 2350   0.635   2.690   0.642
  586SOL    HW2 2351   0.517   2.604   0.603
  587SOL     OW 2352   1.771   2.216   1.645
  587SOL    HW1 2353   1.750   2.230   1.553
  587SOL    HW2 2354   1.698   2.163   1.678
  588SOL     OW 2355   1.739   2.794   1.515
  588SOL    HW1 2356   1.758   2.887   1.528
  588SOL    HW2 2357   1.720   2.787   1.421
  589SOL     OW 2358   0.907   3.239   0.041
  589SOL    HW1 2359   0.833   3.240   0.102
  589SOL    HW2 2360   0.899   3.320  -0.009
  590SOL     OW 2361   0.658   3.657   0.954
  590SOL    HW1 2362   0.630   3.745   0.929
  590SOL    HW2 2363   0.753   3.658   0.942
  591SOL     OW 2364   0.862   2.822   0.858
  591SOL    HW1 2365   0.914   2.755   0.903
  591SOL    HW2 2366   0.833   2.881   0.928
  592SOL     OW 2367   1.097   2.864   0.100
  592SOL    HW1 2368   1.048   2.877   0.019
  592SOL    HW2 2369   1.165   2.801   0.077
  593SOL     OW 2370   1.861   3.422   0.846
  593SOL    HW1 2371   1.784   3.415   0.790
  593SOL    HW2 2372   1.852   3.350   0.908
  594SOL     OW 2373   0.223   3.170   1.851
  594SOL    HW1 2374   0.155   3.106   1.828
  594SOL    HW2 2375   0.213   3.183   1.946
  595SOL     OW 2376   0.079   3.101   0.656
  595SOL    HW1 2377   0.080   3.053   0.740
  595SOL    HW2 2378   0.153   3.065   0.608
  596SOL     OW 2379   0.675   3.258   1.621
  596SOL    HW1 2380   0.598   3.214   1.655
  596SOL    HW2 2381   0.672   3.346   1.659
  597SOL     OW 2382   1.818   2.053   1.234
  597SOL    HW1 2383   1.827   1.961   1.262
  597SOL    HW2 2384   1.825   2.050   1.139
  598SOL     OW 2385   0.430   2.293   0.522
  598SOL    HW1 2386   0.456   2.220   0.465
  598SOL    HW2 2387   0.387   2.250   0.597
  599SOL     OW 2388   0.323   2.411   1.287
  599SOL    HW1 2389   0.373   2.354   1.346
  599SOL    HW2 2390   0.350   2.385   1.199
  600SOL     OW 2391   0.819   3.442   0.685
  600SOL    HW1 2392   0.830   3.468   0.594
  600SOL    HW2 2393   0.739   3.390   0.686
  601SOL     OW 2394   1.431   2.082   1.117
  601SOL    HW1 2395   1.467   2.010   1.169
  601SOL    HW2 2396   1.378   2.132   1.179
  602SOL     OW 2397   1.005   1.889   1.150
  602SOL    HW1 2398   0.949   1.818   1.117
  602SOL    HW2 2399   1.093   1.851   1.151
  603SOL     OW 2400   0.767   3.193   0.305
  603SOL    HW1 2401   0.733   3.105   0.317
  603SOL    HW2 2402   0.855   3.190   0.345
  604SOL     OW 2403   0.618   3.426   1.282
  604SOL    HW1 2404   0.622   3.505   1.336
  604SOL    HW2 2405   0.706   3.420   1.244
  605SOL     OW 2406   1.352   1.914   0.167
  605SOL    HW1 2407   1.378   1.871   0.086
  605SOL    HW2 2408   1.266   1.877   0.187
  606SOL     OW 2409   1.299   2.319   0.687
  606SOL    HW1 2410   1.243   2.396   0.696
  606SOL    HW2 2411   1.301   2.281   0.774
  607SOL     OW 2412   1.590   2.075   0.879
  607SOL    HW1 2413   1.516   2.086   0.939
  607SOL    HW2 2414   1.589   2.154   0.825
  608SOL     OW 2415   0.038   2.935   0.299
  608SOL    HW1 2416   0.133   2.922   0.299
  608SOL    HW2 2417   0.002   2.854   0.333
  609SOL     OW 2418   0.877   3.508   0.348
  609SOL    HW1 2419   0.807   3.487   0.286
  609SOL    HW2 2420   0.844   3.585   0.395
  610SOL     OW 2421   0.231   2.489   1.979
  610SOL    HW1 2422   0.141   2.487   2.011
  610SOL    HW2 2423   0.226   2.455   1.889
  611SOL     OW 2424   0.216   2.136   2.851
  611SOL    HW1 2425   0.251   2.114   2.938
  611SOL    HW2 2426   0.130   2.094   2.849
  612SOL     OW 2427   7.518   2.243   2.501
  612SOL    HW1 2428   7.437   2.264   2.548
  612SOL    HW2 2429   7.497   2.165   2.450
  613SOL     OW 2430   0.567   3.138   3.029
  613SOL    HW1 2431   0.479   3.139   2.994
  613SOL    HW2 2432   0.579   3.225   3.067
  614SOL     OW 2433   1.554   3.373   2.565
  614SOL    HW1 2434   1.506   3.359   2.646
  614SOL    HW2 2435   1.486   3.381   2.498
  615SOL     OW 2436   1.129   2.563   2.571
  615SOL    HW1 2437   1.183   2.641   2.555
  615SOL    HW2 2438   1.081   2.584   2.652
  616SOL     OW 2439   1.760   2.470   2.095
  616SOL    HW1 2440   1.744   2.458   2.001
  616SOL    HW2 2441   1.728   2.390   2.136
  617SOL     OW 2442   0.764   3.008   2.893
  617SOL    HW1 2443   0.692   3.036   2.949
  617SOL    HW2 2444   0.795   3.088   2.851
  618SOL     OW 2445   0.687   2.875   2.517
  618SOL    HW1 2446   0.749   2.856   2.588
  618SOL    HW2 2447   0.616   2.923   2.560
  619SOL     OW 2448   0.332   3.296   2.929
  619SOL    HW1 2449   0.261   3.262   2.875
  619SOL    HW2 2450   0.386   3.346   2.868
  620SOL     OW 2451   1.465   3.362   3.201
  620SOL    HW1 2452   1.497   3.450   3.220
  620SOL    HW2 2453   1.429   3.331   3.284
  621SOL     OW 2454   0.444   2.259   3.352
  621SOL    HW1 2455   0.518   2.198   3.361
  621SOL    HW2 2456   0.366   2.204   3.364
  622SOL     OW 2457   1.611   2.312   2.599
  622SOL    HW1 2458   1.536   2.347   2.551
  622SOL    HW2 2459   1.643   2.385   2.651
  623SOL     OW 2460   0.222   3.574   2.339
  623SOL    HW1 2461   0.250   3.650   2.390
  623SOL    HW2 2462   0.281   3.571   2.264
  624SOL     OW 2463   0.228   3.298   2.396
  624SOL    HW1 2464   0.209   3.392   2.403
  624SOL    HW2 2465   0.162   3.256   2.450
  625SOL     OW 2466   0.242   2.950   2.747
  625SOL    HW1 2467   0.250   2.869   2.797
  625SOL    HW2 2468   0.190   3.008   2.803
  626SOL     OW 2469   0.620   3.649   3.299
  626SOL    HW1 2470   0.534   3.635   3.339
  626SOL    HW2 2471   0.641   3.741   3.318
  627SOL     OW 2472   0.595   2.836   1.990
  627SOL    HW1 2473   0.627   2.900   1.927
  627SOL    HW2 2474   0.642   2.856   2.071
  628SOL     OW 2475   1.593   1.979   3.343
  628SOL    HW1 2476   1.585   2.051   3.279
  628SOL    HW2 2477   1.589   2.022   3.428
  629SOL     OW 2478   0.116   2.508   2.423
  629SOL    HW1 2479   0.084   2.421   2.445
  629SOL    HW2 2480   0.108   2.558   2.504
  630SOL     OW 2481   1.842   3.627   2.207
  630SOL    HW1 2482   1.895   3.598   2.281
  630SOL    HW2 2483   1.873   3.715   2.188
  631SOL     OW 2484   0.026   3.460   1.986
  631SOL    HW1 2485   0.013   3.367   2.005
  631SOL    HW2 2486  -0.011   3.505   2.062
  632SOL     OW 2487   1.690   2.782   2.490
  632SOL    HW1 2488   1.779   2.749   2.480
  632SOL    HW2 2489   1.675   2.834   2.411
  633SOL     OW 2490   1.644   2.970   2.293
  633SOL    HW1 2491   1.727   2.981   2.247
  633SOL    HW2 2492   1.652   3.028   2.369
  634SOL     OW 2493   0.118   2.599   3.449
  634SOL    HW1 2494   0.207   2.606   3.481
  634SOL    HW2 2495   0.086   2.690   3.446
  635SOL     OW 2496   0.612   3.236   2.594
  635SOL    HW1 2497   0.565   3.153   2.601
  635SOL    HW2 2498   0.593   3.267   2.506
  636SOL     OW 2499   1.298   3.099   3.297
  636SOL    HW1 2500   1.327   3.032   3.235
  636SOL    HW2 2501   1.350   3.081   3.376
  637SOL     OW 2502   0.807   1.860   2.362
  637SOL    HW1 2503   0.849   1.946   2.355
  637SOL    HW2 2504   0.715   1.879   2.376
  638SOL     OW 2505   0.195   2.835   3.124
  638SOL    HW1 2506   0.278   2.789   3.112
  638SOL    HW2 2507   0.128   2.772   3.099
  639SOL     OW 2508   1.532   2.854   2.054
  639SOL    HW1 2509   1.463   2.791   2.078
  639SOL    HW2 2510   1.569   2.882   2.138
  640SOL     OW 2511   1.464   3.282   2.815
  640SOL    HW1 2512   1.399   3.291   2.885
  640SOL    HW2 2513   1.453   3.192   2.785
  641SOL     OW 2514   1.664   3.585   2.438
  641SOL    HW1 2515   1.634   3.559   2.351
  641SOL    HW2 2516   1.641   3.512   2.495
  642SOL     OW 2517   0.595   2.587   2.126
  642SOL    HW1 2518   0.611   2.663   2.070
  642SOL    HW2 2519   0.528   2.617   2.188
  643SOL     OW 2520   1.282   2.206   2.796
  643SOL    HW1 2521   1.194   2.168   2.799
  643SOL    HW2 2522   1.332   2.155   2.859
  644SOL     OW 2523   1.580   3.527   2.170
  644SOL    HW1 2524   1.667   3.567   2.167
  644SOL    HW2 2525   1.560   3.507   2.079
  645SOL     OW 2526   0.802   2.472   3.318
  645SOL    HW1 2527   0.767   2.459   3.406
  645SOL    HW2 2528   0.751   2.413   3.262
  646SOL     OW 2529   0.968   2.756   3.432
  646SOL    HW1 2530   1.014   2.680   3.397
  646SOL    HW2 2531   0.913   2.787   3.360
  647SOL     OW 2532   0.991   2.273   3.105
  647SOL    HW1 2533   0.911   2.303   3.147
  647SOL    HW2 2534   0.961   2.226   3.027
  648SOL     OW 2535   1.047   2.562   2.290
  648SOL    HW1 2536   1.061   2.556   2.385
  648SOL    HW2 2537   0.965   2.514   2.276
  649SOL     OW 2538   0.085   2.678   2.638
  649SOL    HW1 2539   0.171   2.669   2.679
  649SOL    HW2 2540   0.049   2.759   2.673
  650SOL     OW 2541   0.131   3.691   3.439
  650SOL    HW1 2542   0.115   3.667   3.530
  650SOL    HW2 2543   0.044   3.711   3.404
  651SOL     OW 2544   0.873   2.207   2.055
  651SOL    HW1 2545   0.926   2.266   2.003
  651SOL    HW2 2546   0.897   2.119   2.024
  652SOL     OW 2547   1.369   3.005   2.405
  652SOL    HW1 2548   1.448   2.986   2.354
  652SOL    HW2 2549   1.321   3.068   2.352
  653SOL     OW 2550   0.547   2.052   2.751
  653SOL    HW1 2551   0.549   2.069   2.845
  653SOL    HW2 2552   0.553   2.138   2.711
  654SOL     OW 2553   1.010   3.311   2.338
  654SOL    HW1 2554   0.967   3.382   2.290
  654SOL    HW2 2555   1.003   3.337   2.430
  655SOL     OW 2556   0.352   3.664   2.714
  655SOL    HW1 2557   0.399   3.582   2.726
  655SOL    HW2 2558   0.418   3.732   2.723
  656SOL     OW 2559   1.797   2.926   2.729
  656SOL    HW1 2560   1.735   2.912   2.658
  656SOL    HW2 2561   1.742   2.931   2.808
  657SOL     OW 2562   1.231   3.400   3.353
  657SOL    HW1 2563   1.230   3.323   3.410
  657SOL    HW2 2564   1.167   3.380   3.285
  658SOL     OW 2565   0.320   2.812   2.105
  658SOL    HW1 2566   0.403   2.836   2.063
  658SOL    HW2 2567   0.295   2.730   2.063
  659SOL     OW 2568   1.468   2.596   2.590
  659SOL    HW1 2569   1.458   2.545   2.670
  659SOL    HW2 2570   1.543   2.653   2.607
  660SOL     OW 2571   1.118   3.638   2.096
  660SOL    HW1 2572   1.051   3.589   2.143
  660SOL    HW2 2573   1.137   3.585   2.019
  661SOL     OW 2574   0.203   2.139   3.351
  661SOL    HW1 2575   0.129   2.198   3.335
  661SOL    HW2 2576   0.184   2.100   3.436
  662SOL     OW 2577   1.631   3.239   1.948
  662SOL    HW1 2578   1.593   3.325   1.933
  662SOL    HW2 2579   1.560   3.177   1.930
  663SOL     OW 2580   0.466   3.603   2.184
  663SOL    HW1 2581   0.502   3.653   2.257
  663SOL    HW2 2582   0.542   3.586   2.127
  664SOL     OW 2583   1.401   1.971   2.289
  664SOL    HW1 2584   1.385   1.941   2.200
  664SOL    HW2 2585   1.496   1.979   2.296
  665SOL     OW 2586   0.252   3.652   3.099
  665SOL    HW1 2587   0.304   3.587   3.146
  665SOL    HW2 2588   0.238   3.614   3.013
  666SOL     OW 2589   0.940   3.560   2.765
  666SOL    HW1 2590   1.016   3.505   2.783
  666SOL    HW2 2591   0.892   3.514   2.696
  667SOL     OW 2592   0.386   2.559   2.342
  667SOL    HW1 2593   0.416   2.469   2.346
  667SOL    HW2 2594   0.293   2.554   2.364
  668SOL     OW 2595   0.620   1.988   1.974
  668SOL    HW1 2596   0.706   1.947   1.981
  668SOL    HW2 2597   0.585   1.956   1.891
  669SOL     OW 2598   0.881   3.380   3.056
  669SOL    HW1 2599   0.865   3.347   2.967
  669SOL    HW2 2600   0.945   3.320   3.093
  670SOL     OW 2601   1.342   2.451   3.302
  670SOL    HW1 2602   1.383   2.421   3.383
  670SOL    HW2 2603   1.378   2.538   3.287
  671SOL     OW 2604   0.808   3.265   2.792
  671SOL    HW1 2605   0.892   3.263   2.746
  671SOL    HW2 2606   0.742   3.258   2.722
  672SOL     OW 2607   0.925   2.369   2.765
  672SOL    HW1 2608   0.901   2.359   2.673
  672SOL    HW2 2609   0.964   2.285   2.790
  673SOL     OW 2610   0.546   1.924   2.372
  673SOL    HW1 2611   0.465   1.926   2.423
  673SOL    HW2 2612   0.542   2.003   2.318
  674SOL     OW 2613   1.429   3.056   1.901
  674SOL    HW1 2614   1.462   2.983   1.954
  674SOL    HW2 2615   1.343   3.076   1.938
  675SOL     OW 2616   0.295   1.903   2.040
  675SOL    HW1 2617   0.351   1.975   2.012
  675SOL    HW2 2618   0.355   1.841   2.081
  676SOL     OW 2619   0.934   2.101   2.334
  676SOL    HW1 2620   0.900   2.145   2.255
  676SOL    HW2 2621   1.029   2.108   2.326
  677SOL     OW 2622   1.079   2.540   3.323
  677SOL    HW1 2623   1.006   2.477   3.321
  677SOL    HW2 2624   1.157   2.487   3.309
  678SOL     OW 2625   1.225   3.432   2.655
  678SOL    HW1 2626   1.248   3.500   2.593
  678SOL    HW2 2627   1.293   3.437   2.723
  679SOL     OW 2628   0.463   3.008   2.604
  679SOL    HW1 2629   0.389   2.990   2.662
  679SOL    HW2 2630   0.429   2.989   2.516
  680SOL     OW 2631   1.273   3.658   2.461
  680SOL    HW1 2632   1.313   3.721   2.400
  680SOL    HW2 2633   1.215   3.712   2.515
  681SOL     OW 2634   1.030   2.411   1.877
  681SOL    HW1 2635   0.990   2.494   1.853
  681SOL    HW2 2636   1.091   2.433   1.948
  682SOL     OW 2637   0.075   2.413   3.255
  682SOL    HW1 2638   0.164   2.416   3.219
  682SOL    HW2 2639   0.072   2.487   3.316
  683SOL     OW 2640   0.564   2.087   3.020
  683SOL    HW1 2641   0.596   2.003   3.053
  683SOL    HW2 2642   0.474   2.092   3.050
  684SOL     OW 2643   0.870   2.320   2.503
  684SOL    HW1 2644   0.828   2.378   2.440
  684SOL    HW2 2645   0.888   2.240   2.454
  685SOL     OW 2646   1.014   1.912   2.618
  685SOL    HW1 2647   0.952   1.904   2.545
  685SOL    HW2 2648   0.995   1.836   2.673
  686SOL     OW 2649   1.433   3.029   2.723
  686SOL    HW1 2650   1.371   2.956   2.718
  686SOL    HW2 2651   1.454   3.049   2.632
  687SOL     OW 2652   1.470   2.458   2.849
  687SOL    HW1 2653   1.430   2.371   2.857
  687SOL    HW2 2654   1.534   2.462   2.920
  688SOL     OW 2655   1.849   2.686   2.242
  688SOL    HW1 2656   1.902   2.630   2.298
  688SOL    HW2 2657   1.821   2.630   2.170
  689SOL     OW 2658   0.493   3.264   2.030
  689SOL    HW1 2659   0.415   3.237   2.078
  689SOL    HW2 2660   0.467   3.264   1.938
  690SOL     OW 2661   1.665   3.131   2.518
  690SOL    HW1 2662   1.760   3.141   2.527
  690SOL    HW2 2663   1.630   3.218   2.539
  691SOL     OW 2664   1.392   2.434   1.934
  691SOL    HW1 2665   1.337   2.416   2.010
  691SOL    HW2 2666   1.478   2.400   1.958
  692SOL     OW 2667   0.527   2.123   2.188
  692SOL    HW1 2668   0.559   2.069   2.115
  692SOL    HW2 2669   0.518   2.211   2.151
  693SOL     OW 2670   1.762   3.082   3.433
  693SOL    HW1 2671   1.854   3.056   3.433
  693SOL    HW2 2672   1.761   3.170   3.469
  694SOL     OW 2673   1.067   3.214   3.201
  694SOL    HW1 2674   0.990   3.183   3.248
  694SOL    HW2 2675   1.141   3.170   3.244
  695SOL     OW 2676   1.118   3.060   2.969
  695SOL    HW1 2677   1.064   3.101   3.037
  695SOL    HW2 2678   1.081   3.092   2.886
  696SOL     OW 2679   1.636   2.964   2.940
  696SOL    HW1 2680   1.633   3.029   3.010
  696SOL    HW2 2681   1.551   2.974   2.896
  697SOL     OW 2682   0.917   1.960   3.267
  697SOL    HW1 2683   0.936   1.937   3.176
  697SOL    HW2 2684   0.997   2.003   3.299
  698SOL     OW 2685   0.707   2.919   2.234
  698SOL    HW1 2686   0.694   2.910   2.328
  698SOL    HW2 2687   0.784   2.866   2.215
  699SOL     OW 2688   0.414   2.674   3.112
  699SOL    HW1 2689   0.485   2.685   3.175
  699SOL    HW2 2690   0.376   2.589   3.134
  700SOL     OW 2691   1.271   2.243   3.131
  700SOL    HW1 2692   1.298   2.321   3.180
  700SOL    HW2 2693   1.185   2.265   3.096
  701SOL     OW 2694   0.061   3.434   3.203
  701SOL    HW1 2695   0.029   3.511   3.156
  701SOL    HW2 2696   0.156   3.444   3.205
  702SOL     OW 2697   0.361   2.964   2.358
  702SOL    HW1 2698   0.360   3.039   2.299
  702SOL    HW2 2699   0.363   2.888   2.300
  703SOL     OW 2700   0.561   2.400   2.725
  703SOL    HW1 2701   0.578   2.460   2.653
  703SOL    HW2 2702   0.615   2.433   2.797
  704SOL     OW 2703   1.248   3.209   2.251
  704SOL    HW1 2704   1.300   3.283   2.284
  704SOL    HW2 2705   1.160   3.225   2.285
  705SOL     OW 2706   1.271   3.314   3.006
  705SOL    HW1 2707   1.324   3.318   3.086
  705SOL    HW2 2708   1.217   3.236   3.017
  706SOL     OW 2709   1.582   2.494   2.335
  706SOL    HW1 2710   1.547   2.555   2.400
  706SOL    HW2 2711   1.630   2.550   2.273
  707SOL     OW 2712   0.351   3.379   3.186
  707SOL    HW1 2713   0.335   3.336   3.102
  707SOL    HW2 2714   0.445   3.395   3.188
  708SOL     OW 2715   0.402   2.610   3.462
  708SOL    HW1 2716   0.466   2.662   3.414
  708SOL    HW2 2717   0.448   2.529   3.484
  709SOL     OW 2718   1.591   2.629   3.526
  709SOL    HW1 2719   1.513   2.683   3.537
  709SOL    HW2 2720   1.652   2.684   3.476
  710SOL     OW 2721   0.580   2.732   2.893
  710SOL    HW1 2722   0.612   2.822   2.887
  710SOL    HW2 2723   0.521   2.733   2.968
  711SOL     OW 2724   1.362   2.723   2.902
  711SOL    HW1 2725   1.286   2.718   2.844
  711SOL    HW2 2726   1.395   2.633   2.906
  712SOL     OW 2727   1.210   2.390   2.135
  712SOL    HW1 2728   1.217   2.311   2.188
  712SOL    HW2 2729   1.173   2.456   2.193
  713SOL     OW 2730   0.305   2.068   3.101
  713SOL    HW1 2731   0.274   2.101   3.185
  713SOL    HW2 2732   0.280   1.976   3.101
  714SOL     OW 2733   0.044   3.170   3.138
  714SOL    HW1 2734   0.079   3.123   3.213
  714SOL    HW2 2735   0.049   3.262   3.162
  715SOL     OW 2736   0.730   2.496   2.926
  715SOL    HW1 2737   0.795   2.475   2.859
  715SOL    HW2 2738   0.702   2.585   2.905
  716SOL     OW 2739   0.302   1.929   2.484
  716SOL    HW1 2740   0.288   2.019   2.514
  716SOL    HW2 2741   0.302   1.877   2.564
  717SOL     OW 2742   1.610   2.230   2.233
  717SOL    HW1 2743   1.635   2.166   2.299
  717SOL    HW2 2744   1.584   2.308   2.282
  718SOL     OW 2745   1.025   2.625   2.827
  718SOL    HW1 2746   1.032   2.642   2.920
  718SOL    HW2 2747   0.998   2.533   2.821
  719SOL     OW 2748   1.863   3.351   3.445
  719SOL    HW1 2749   1.877   3.396   3.362
  719SOL    HW2 2750   1.910   3.404   3.509
  720SOL     OW 2751   1.533   2.138   1.988
  720SOL    HW1 2752   1.474   2.068   2.016
  720SOL    HW2 2753   1.565   2.177   2.069
  721SOL     OW 2754   1.299   2.692   1.900
  721SOL    HW1 2755   1.339   2.606   1.904
  721SOL    HW2 2756   1.326   2.727   1.815
  722SOL     OW 2757   1.065   3.196   2.712
  722SOL    HW1 2758   1.070   3.121   2.653
  722SOL    HW2 2759   1.129   3.258   2.678
  723SOL     OW 2760   0.315   2.675   2.812
  723SOL    HW1 2761   0.408   2.697   2.810
  723SOL    HW2 2762   0.311   2.588   2.853
  724SOL     OW 2763   0.337   2.376   2.871
  724SOL    HW1 2764   0.295   2.292   2.851
  724SOL    HW2 2765   0.411   2.381   2.810
  725SOL     OW 2766   1.149   2.077   3.339
  725SOL    HW1 2767   1.169   2.138   3.411
  725SOL    HW2 2768   1.190   2.116   3.262
  726SOL     OW 2769   7.505   3.188   2.053
  726SOL    HW1 2770   7.413   3.196   2.027
  726SOL    HW2 2771   7.513   3.097   2.084
  727SOL     OW 2772   0.082   3.659   2.792
  727SOL    HW1 2773   0.047   3.578   2.756
  727SOL    HW2 2774   0.172   3.662   2.760
  728SOL     OW 2775   0.502   3.434   2.766
  728SOL    HW1 2776   0.571   3.497   2.788
  728SOL    HW2 2777   0.548   3.362   2.722
  729SOL     OW 2778   0.996   2.659   3.093
  729SOL    HW1 2779   1.041   2.631   3.173
  729SOL    HW2 2780   0.906   2.627   3.104
  730SOL     OW 2781   0.032   2.405   2.978
  730SOL    HW1 2782   0.116   2.383   2.938
  730SOL    HW2 2783   0.051   2.414   3.071
  731SOL     OW 2784   0.814   2.430   2.206
  731SOL    HW1 2785   0.817   2.353   2.149
  731SOL    HW2 2786   0.735   2.476   2.180
  732SOL     OW 2787   1.645   2.461   3.056
  732SOL    HW1 2788   1.630   2.401   3.129
  732SOL    HW2 2789   1.732   2.439   3.023
  733SOL     OW 2790   0.285   3.418   0.060
  733SOL    HW1 2791   0.225   3.476   0.106
  733SOL    HW2 2792   0.249   3.330   0.074
  734SOL     OW 2793   0.686   2.319   3.129
  734SOL    HW1 2794   0.639   2.243   3.095
  734SOL    HW2 2795   0.691   2.379   3.054
  735SOL     OW 2796   0.939   3.537   3.330
  735SOL    HW1 2797   0.907   3.513   3.243
  735SOL    HW2 2798   0.946   3.632   3.328
  736SOL     OW 2799   0.472   2.357   2.051
  736SOL    HW1 2800   0.527   2.434   2.066
  736SOL    HW2 2801   0.383   2.393   2.050
  737SOL     OW 2802   0.156   3.003   3.328
  737SOL    HW1 2803   0.163   2.944   3.404
  737SOL    HW2 2804   0.169   2.945   3.253
  738SOL     OW 2805   1.336   2.916   3.093
  738SOL    HW1 2806   1.363   2.856   3.023
  738SOL    HW2 2807   1.258   2.959   3.059
  739SOL     OW 2808   1.305   2.716   2.171
  739SOL    HW1 2809   1.223   2.688   2.213
  739SOL    HW2 2810   1.288   2.705   2.078
  740SOL     OW 2811   1.760   3.612   3.011
  740SOL    HW1 2812   1.822   3.635   2.942
  740SOL    HW2 2813   1.737   3.521   2.993
  741SOL     OW 2814   1.245   3.594   2.984
  741SOL    HW1 2815   1.327   3.605   2.936
  741SOL    HW2 2816   1.240   3.500   3.002
  742SOL     OW 2817   0.080   3.118   2.879
  742SOL    HW1 2818   0.071   3.129   2.973
  742SOL    HW2 2819  -0.002   3.076   2.851
  743SOL     OW 2820   1.719   1.999   2.379
  743SOL    HW1 2821   1.794   1.985   2.321
  743SOL    HW2 2822   1.703   1.913   2.418
  744SOL     OW 2823   1.389   3.431   2.341
  744SOL    HW1 2824   1.451   3.456   2.272
  744SOL    HW2 2825   1.346   3.512   2.367
  745SOL     OW 2826   1.277   2.785   2.533
  745SOL    HW1 2827   1.348   2.720   2.535
  745SOL    HW2 2828   1.312   2.857   2.481
  746SOL     OW 2829   0.826   3.132   3.290
  746SOL    HW1 2830   0.812   3.165   3.379
  746SOL    HW2 2831   0.746   3.156   3.243
  747SOL     OW 2832   0.672   3.476   2.017
  747SOL    HW1 2833   0.680   3.484   1.922
  747SOL    HW2 2834   0.626   3.393   2.030
  748SOL     OW 2835   1.640   3.584   3.262
  748SOL    HW1 2836   1.686   3.593   3.179
  748SOL    HW2 2837   1.624   3.674   3.290
  749SOL     OW 2838   1.839   2.035   2.830
  749SOL    HW1 2839   1.870   1.951   2.795
  749SOL    HW2 2840   1.752   2.045   2.793
  750SOL     OW 2841   0.268   2.183   2.583
  750SOL    HW1 2842   0.186   2.222   2.553
  750SOL    HW2 2843   0.256   2.171   2.677
  751SOL     OW 2844   1.200   3.473   1.893
  751SOL    HW1 2845   1.197   3.381   1.922
  751SOL    HW2 2846   1.138   3.477   1.821
  752SOL     OW 2847   0.822   2.867   3.231
  752SOL    HW1 2848   0.864   2.867   3.145
  752SOL    HW2 2849   0.828   2.958   3.261
  753SOL     OW 2850   0.915   2.772   2.151
  753SOL    HW1 2851   0.978   2.804   2.086
  753SOL    HW2 2852   0.959   2.697   2.192
  754SOL     OW 2853   1.503   3.483   1.904
  754SOL    HW1 2854   1.408   3.492   1.901
  754SOL    HW2 2855   1.531   3.490   1.813
  755SOL     OW 2856   0.372   3.161   3.368
  755SOL    HW1 2857   0.360   3.238   3.312
  755SOL    HW2 2858   0.298   3.104   3.346
  756SOL     OW 2859   1.613   3.147   3.146
  756SOL    HW1 2860   1.671   3.144   3.223
  756SOL    HW2 2861   1.553   3.219   3.164
  757SOL     OW 2862   1.042   2.963   2.564
  757SOL    HW1 2863   0.974   2.912   2.607
  757SOL    HW2 2864   1.100   2.898   2.525
  758SOL     OW 2865   1.017   2.101   2.828
  758SOL    HW1 2866   1.009   2.055   2.745
  758SOL    HW2 2867   1.012   2.031   2.894
  759SOL     OW 2868   0.598   3.352   2.348
  759SOL    HW1 2869   0.632   3.297   2.277
  759SOL    HW2 2870   0.541   3.415   2.304
  760SOL     OW 2871   1.710   2.249   3.242
  760SOL    HW1 2872   1.781   2.312   3.248
  760SOL    HW2 2873   1.745   2.179   3.186
  761SOL     OW 2874   0.254   3.213   2.146
  761SOL    HW1 2875   0.160   3.210   2.128
  761SOL    HW2 2876   0.261   3.250   2.234
  762SOL     OW 2877   0.111   2.858   0.025
  762SOL    HW1 2878   0.035   2.854   0.082
  762SOL    HW2 2879   0.186   2.854   0.085
  763SOL     OW 2880   0.670   2.055   3.361
  763SOL    HW1 2881   0.753   2.044   3.314
  763SOL    HW2 2882   0.695   2.085   3.448
  764SOL     OW 2883   0.073   2.204   1.895
  764SOL    HW1 2884  -0.015   2.182   1.864
  764SOL    HW2 2885   0.100   2.278   1.840
  765SOL     OW 2886   1.433   2.713   3.262
  765SOL    HW1 2887   1.387   2.775   3.207
  765SOL    HW2 2888   1.525   2.725   3.240
  766SOL     OW 2889   0.065   2.022   2.178
  766SOL    HW1 2890   0.057   2.102   2.127
  766SOL    HW2 2891   0.151   1.988   2.155
  767SOL     OW 2892   1.182   3.206   1.979
  767SOL    HW1 2893   1.090   3.179   1.985
  767SOL    HW2 2894   1.212   3.205   2.070
  768SOL     OW 2895   0.615   2.698   3.292
  768SOL    HW1 2896   0.670   2.775   3.278
  768SOL    HW2 2897   0.677   2.625   3.300
  769SOL     OW 2898   1.488   3.633   2.829
  769SOL    HW1 2899   1.521   3.690   2.759
  769SOL    HW2 2900   1.563   3.622   2.888
  770SOL     OW 2901   0.721   2.431   0.018
  770SOL    HW1 2902   0.731   2.490   0.092
  770SOL    HW2 2903   0.770   2.352   0.043
  771SOL     OW 2904   0.389   3.601   3.421
  771SOL    HW1 2905   0.303   3.644   3.418
  771SOL    HW2 2906   0.372   3.517   3.464
  772SOL     OW 2907   1.674   2.745   3.118
  772SOL    HW1 2908   1.658   2.660   3.076
  772SOL    HW2 2909   1.669   2.808   3.046
  773SOL     OW 2910   1.222   2.184   2.316
  773SOL    HW1 2911   1.287   2.113   2.307
  773SOL    HW2 2912   1.248   2.230   2.396
  774SOL     OW 2913   0.593   2.606   2.522
  774SOL    HW1 2914   0.635   2.690   2.504
  774SOL    HW2 2915   0.517   2.603   2.465
  775SOL     OW 2916   1.744   2.796   3.376
  775SOL    HW1 2917   1.750   2.890   3.390
  775SOL    HW2 2918   1.726   2.786   3.282
  776SOL     OW 2919   0.861   3.233   1.885
  776SOL    HW1 2920   0.820   3.256   1.968
  776SOL    HW2 2921   0.888   3.317   1.848
  777SOL     OW 2922   0.658   3.657   2.816
  777SOL    HW1 2923   0.630   3.745   2.791
  777SOL    HW2 2924   0.753   3.657   2.805
  778SOL     OW 2925   0.862   2.822   2.720
  778SOL    HW1 2926   0.914   2.755   2.765
  778SOL    HW2 2927   0.833   2.880   2.790
  779SOL     OW 2928   1.080   2.847   1.950
  779SOL    HW1 2929   1.061   2.898   1.871
  779SOL    HW2 2930   1.158   2.797   1.927
  780SOL     OW 2931   1.860   3.424   2.709
  780SOL    HW1 2932   1.786   3.411   2.650
  780SOL    HW2 2933   1.853   3.353   2.772
  781SOL     OW 2934   0.079   3.101   2.518
  781SOL    HW1 2935   0.080   3.054   2.601
  781SOL    HW2 2936   0.153   3.064   2.469
  782SOL     OW 2937   0.651   3.256   3.466
  782SOL    HW1 2938   0.590   3.202   3.516
  782SOL    HW2 2939   0.654   3.339   3.512
  783SOL     OW 2940   1.817   2.050   3.098
  783SOL    HW1 2941   1.824   1.957   3.120
  783SOL    HW2 2942   1.826   2.052   3.003
  784SOL     OW 2943   0.429   2.292   2.383
  784SOL    HW1 2944   0.456   2.219   2.328
  784SOL    HW2 2945   0.387   2.251   2.458
  785SOL     OW 2946   1.702   3.355   2.968
  785SOL    HW1 2947   1.620   3.323   2.931
  785SOL    HW2 2948   1.725   3.292   3.036
  786SOL     OW 2949   0.322   2.411   3.149
  786SOL    HW1 2950   0.373   2.355   3.208
  786SOL    HW2 2951   0.350   2.385   3.061
  787SOL     OW 2952   0.820   3.441   2.547
  787SOL    HW1 2953   0.829   3.469   2.456
  787SOL    HW2 2954   0.739   3.390   2.548
  788SOL     OW 2955   1.430   2.081   2.979
  788SOL    HW1 2956   1.469   2.011   3.031
  788SOL    HW2 2957   1.379   2.132   3.042
  789SOL     OW 2958   1.004   1.888   3.013
  789SOL    HW1 2959   0.950   1.818   2.978
  789SOL    HW2 2960   1.093   1.852   3.013
  790SOL     OW 2961   0.771   3.194   2.167
  790SOL    HW1 2962   0.732   3.106   2.177
  790SOL    HW2 2963   0.855   3.188   2.211
  791SOL     OW 2964   0.619   3.426   3.144
  791SOL    HW1 2965   0.622   3.505   3.198
  791SOL    HW2 2966   0.706   3.420   3.105
  792SOL     OW 2967   1.353   1.914   2.027
  792SOL    HW1 2968   1.377   1.865   1.948
  792SOL    HW2 2969   1.267   1.881   2.051
  793SOL     OW 2970   1.299   2.319   2.549
  793SOL    HW1 2971   1.243   2.396   2.558
  793SOL    HW2 2972   1.302   2.281   2.636
  794SOL     OW 2973   1.590   2.074   2.741
  794SOL    HW1 2974   1.516   2.086   2.801
  794SOL    HW2 2975   1.590   2.154   2.687
  795SOL     OW 2976   0.041   2.937   2.161
  795SOL    HW1 2977   0.135   2.918   2.154
  795SOL    HW2 2978   0.002   2.855   2.189
  796SOL     OW 2979   0.876   3.506   2.208
  796SOL    HW1 2980   0.806   3.487   2.146
  796SOL    HW2 2981   0.846   3.585   2.255
  797SOL     OW 2982   0.232   4.340   0.129
  797SOL    HW1 2983   0.139   4.349   0.152
  797SOL    HW2 2984   0.232   4.319   0.036
  798SOL     OW 2985   0.216   3.998   0.990
  798SOL    HW1 2986   0.251   3.976   1.076
  798SOL    HW2 2987   0.130   3.956   0.987
  799SOL     OW 2988   7.518   4.105   0.639
  799SOL    HW1 2989   7.437   4.126   0.686
  799SOL    HW2 2990   7.497   4.027   0.588
  800SOL     OW 2991   0.567   5.000   1.168
  800SOL    HW1 2992   0.479   5.000   1.131
  800SOL    HW2 2993   0.579   5.087   1.204
  801SOL     OW 2994   1.557   5.238   0.702
  801SOL    HW1 2995   1.506   5.222   0.780
  801SOL    HW2 2996   1.492   5.248   0.632
  802SOL     OW 2997   1.131   4.424   0.711
  802SOL    HW1 2998   1.183   4.503   0.693
  802SOL    HW2 2999   1.081   4.446   0.790
  803SOL     OW 3000   1.766   4.329   0.228
  803SOL    HW1 3001   1.731   4.326   0.139
  803SOL    HW2 3002   1.727   4.254   0.273
  804SOL     OW 3003   0.764   4.869   1.031
  804SOL    HW1 3004   0.691   4.898   1.086
  804SOL    HW2 3005   0.795   4.949   0.988
  805SOL     OW 3006   0.854   4.515   1.821
  805SOL    HW1 3007   0.847   4.587   1.883
  805SOL    HW2 3008   0.878   4.556   1.738
  806SOL     OW 3009   0.686   4.736   0.655
  806SOL    HW1 3010   0.749   4.718   0.726
  806SOL    HW2 3011   0.616   4.785   0.698
  807SOL     OW 3012   0.700   4.879   1.804
  807SOL    HW1 3013   0.748   4.959   1.825
  807SOL    HW2 3014   0.615   4.910   1.772
  808SOL     OW 3015   0.332   5.155   1.068
  808SOL    HW1 3016   0.260   5.125   1.012
  808SOL    HW2 3017   0.387   5.208   1.009
  809SOL     OW 3018   1.465   5.226   1.346
  809SOL    HW1 3019   1.478   5.319   1.363
  809SOL    HW2 3020   1.429   5.191   1.428
  810SOL     OW 3021   0.443   4.120   1.496
  810SOL    HW1 3022   0.518   4.062   1.501
  810SOL    HW2 3023   0.367   4.062   1.504
  811SOL     OW 3024   1.607   4.173   0.740
  811SOL    HW1 3025   1.536   4.209   0.687
  811SOL    HW2 3026   1.646   4.249   0.783
  812SOL     OW 3027   1.131   5.065   1.689
  812SOL    HW1 3028   1.173   5.063   1.775
  812SOL    HW2 3029   1.079   4.985   1.685
  813SOL     OW 3030   0.223   5.165   0.532
  813SOL    HW1 3031   0.204   5.256   0.553
  813SOL    HW2 3032   0.163   5.115   0.587
  814SOL     OW 3033   0.242   4.812   0.885
  814SOL    HW1 3034   0.250   4.731   0.935
  814SOL    HW2 3035   0.190   4.870   0.941
  815SOL     OW 3036   0.596   4.694   0.135
  815SOL    HW1 3037   0.616   4.760   0.069
  815SOL    HW2 3038   0.649   4.719   0.211
  816SOL     OW 3039   1.594   3.832   1.492
  816SOL    HW1 3040   1.580   3.891   1.418
  816SOL    HW2 3041   1.585   3.888   1.569
  817SOL     OW 3042   0.116   4.370   0.561
  817SOL    HW1 3043   0.084   4.283   0.582
  817SOL    HW2 3044   0.107   4.420   0.642
  818SOL     OW 3045   0.021   5.330   0.136
  818SOL    HW1 3046   0.007   5.237   0.157
  818SOL    HW2 3047  -0.006   5.377   0.214
  819SOL     OW 3048   1.690   4.643   0.629
  819SOL    HW1 3049   1.780   4.611   0.617
  819SOL    HW2 3050   1.673   4.696   0.551
  820SOL     OW 3051   1.645   4.830   0.434
  820SOL    HW1 3052   1.725   4.845   0.384
  820SOL    HW2 3053   1.652   4.891   0.508
  821SOL     OW 3054   0.119   4.464   1.590
  821SOL    HW1 3055   0.209   4.470   1.623
  821SOL    HW2 3056   0.089   4.555   1.586
  822SOL     OW 3057   0.609   5.099   0.734
  822SOL    HW1 3058   0.564   5.015   0.740
  822SOL    HW2 3059   0.593   5.129   0.644
  823SOL     OW 3060   1.292   4.961   1.424
  823SOL    HW1 3061   1.326   4.892   1.368
  823SOL    HW2 3062   1.344   4.954   1.505
  824SOL     OW 3063   0.808   3.723   0.500
  824SOL    HW1 3064   0.849   3.809   0.493
  824SOL    HW2 3065   0.715   3.741   0.513
  825SOL     OW 3066   0.195   4.696   1.264
  825SOL    HW1 3067   0.278   4.651   1.250
  825SOL    HW2 3068   0.128   4.634   1.235
  826SOL     OW 3069   1.526   4.721   0.195
  826SOL    HW1 3070   1.463   4.652   0.218
  826SOL    HW2 3071   1.567   4.745   0.278
  827SOL     OW 3072   0.323   3.976   1.798
  827SOL    HW1 3073   0.380   4.052   1.815
  827SOL    HW2 3074   0.239   4.001   1.836
  828SOL     OW 3075   1.462   5.145   0.954
  828SOL    HW1 3076   1.397   5.151   1.024
  828SOL    HW2 3077   1.453   5.055   0.921
  829SOL     OW 3078   0.597   4.450   0.261
  829SOL    HW1 3079   0.609   4.528   0.207
  829SOL    HW2 3080   0.531   4.476   0.326
  830SOL     OW 3081   1.289   4.055   0.924
  830SOL    HW1 3082   1.197   4.030   0.926
  830SOL    HW2 3083   1.326   4.021   1.005
  831SOL     OW 3084   1.587   5.377   0.306
  831SOL    HW1 3085   1.660   5.438   0.302
  831SOL    HW2 3086   1.559   5.367   0.215
  832SOL     OW 3087   0.797   4.337   1.457
  832SOL    HW1 3088   0.766   4.320   1.546
  832SOL    HW2 3089   0.751   4.274   1.402
  833SOL     OW 3090   1.395   4.196   1.677
  833SOL    HW1 3091   1.388   4.239   1.762
  833SOL    HW2 3092   1.462   4.129   1.689
  834SOL     OW 3093   0.964   4.614   1.578
  834SOL    HW1 3094   1.016   4.540   1.546
  834SOL    HW2 3095   0.917   4.645   1.501
  835SOL     OW 3096   0.976   4.128   1.251
  835SOL    HW1 3097   0.895   4.163   1.289
  835SOL    HW2 3098   0.948   4.090   1.167
  836SOL     OW 3099   1.047   4.424   0.429
  836SOL    HW1 3100   1.061   4.418   0.523
  836SOL    HW2 3101   0.965   4.377   0.413
  837SOL     OW 3102   0.085   4.540   0.775
  837SOL    HW1 3103   0.171   4.531   0.817
  837SOL    HW2 3104   0.049   4.621   0.811
  838SOL     OW 3105   0.115   0.068   1.573
  838SOL    HW1 3106   0.117   0.061   1.669
  838SOL    HW2 3107   0.031   0.110   1.554
  839SOL     OW 3108   0.868   4.078   0.189
  839SOL    HW1 3109   0.937   4.125   0.142
  839SOL    HW2 3110   0.882   3.986   0.167
  840SOL     OW 3111   1.714   4.306   1.830
  840SOL    HW1 3112   1.684   4.387   1.789
  840SOL    HW2 3113   1.727   4.245   1.757
  841SOL     OW 3114   1.370   4.867   0.543
  841SOL    HW1 3115   1.447   4.847   0.491
  841SOL    HW2 3116   1.320   4.930   0.491
  842SOL     OW 3117   0.548   3.914   0.889
  842SOL    HW1 3118   0.549   3.930   0.983
  842SOL    HW2 3119   0.552   4.001   0.849
  843SOL     OW 3120   1.010   5.182   0.474
  843SOL    HW1 3121   0.958   5.252   0.432
  843SOL    HW2 3122   0.996   5.195   0.568
  844SOL     OW 3123   1.796   4.786   0.868
  844SOL    HW1 3124   1.735   4.775   0.795
  844SOL    HW2 3125   1.741   4.794   0.946
  845SOL     OW 3126   1.229   5.268   1.507
  845SOL    HW1 3127   1.221   5.195   1.569
  845SOL    HW2 3128   1.172   5.244   1.434
  846SOL     OW 3129   0.314   4.675   0.224
  846SOL    HW1 3130   0.403   4.696   0.197
  846SOL    HW2 3131   0.305   4.581   0.206
  847SOL     OW 3132   1.468   4.458   0.726
  847SOL    HW1 3133   1.458   4.407   0.806
  847SOL    HW2 3134   1.543   4.516   0.742
  848SOL     OW 3135   0.463   4.986   1.735
  848SOL    HW1 3136   0.428   4.993   1.646
  848SOL    HW2 3137   0.385   4.983   1.791
  849SOL     OW 3138   0.199   4.008   1.497
  849SOL    HW1 3139   0.120   4.061   1.488
  849SOL    HW2 3140   0.185   3.957   1.577
  850SOL     OW 3141   1.622   5.108   0.098
  850SOL    HW1 3142   1.588   5.186   0.055
  850SOL    HW2 3143   1.564   5.037   0.069
  851SOL     OW 3144   1.401   3.834   0.427
  851SOL    HW1 3145   1.386   3.804   0.337
  851SOL    HW2 3146   1.496   3.840   0.435
  852SOL     OW 3147   0.385   4.421   0.479
  852SOL    HW1 3148   0.417   4.331   0.483
  852SOL    HW2 3149   0.293   4.416   0.503
  853SOL     OW 3150   1.539   3.956   1.726
  853SOL    HW1 3151   1.545   3.975   1.820
  853SOL    HW2 3152   1.479   3.882   1.720
  854SOL     OW 3153   0.615   3.842   0.114
  854SOL    HW1 3154   0.708   3.822   0.120
  854SOL    HW2 3155   0.590   3.814   0.026
  855SOL     OW 3156   0.773   3.994   1.749
  855SOL    HW1 3157   0.841   3.932   1.775
  855SOL    HW2 3158   0.715   4.000   1.825
  856SOL     OW 3159   0.881   5.240   1.184
  856SOL    HW1 3160   0.863   5.197   1.101
  856SOL    HW2 3161   0.943   5.181   1.228
  857SOL     OW 3162   1.341   4.321   1.440
  857SOL    HW1 3163   1.374   4.280   1.520
  857SOL    HW2 3164   1.379   4.409   1.440
  858SOL     OW 3165   0.809   5.125   0.932
  858SOL    HW1 3166   0.891   5.131   0.884
  858SOL    HW2 3167   0.742   5.122   0.863
  859SOL     OW 3168   0.926   4.231   0.903
  859SOL    HW1 3169   0.901   4.221   0.811
  859SOL    HW2 3170   0.963   4.147   0.928
  860SOL     OW 3171   0.546   3.786   0.510
  860SOL    HW1 3172   0.465   3.788   0.561
  860SOL    HW2 3173   0.543   3.865   0.455
  861SOL     OW 3174   1.426   4.920   0.033
  861SOL    HW1 3175   1.463   4.848   0.084
  861SOL    HW2 3176   1.341   4.937   0.074
  862SOL     OW 3177   0.292   3.766   0.180
  862SOL    HW1 3178   0.350   3.837   0.151
  862SOL    HW2 3179   0.351   3.700   0.216
  863SOL     OW 3180   0.934   3.963   0.472
  863SOL    HW1 3181   0.899   4.005   0.393
  863SOL    HW2 3182   1.029   3.971   0.463
  864SOL     OW 3183   1.078   4.402   1.460
  864SOL    HW1 3184   1.006   4.340   1.466
  864SOL    HW2 3185   1.156   4.349   1.448
  865SOL     OW 3186   1.233   5.282   0.787
  865SOL    HW1 3187   1.237   5.365   0.740
  865SOL    HW2 3188   1.291   5.295   0.863
  866SOL     OW 3189   0.463   4.869   0.742
  866SOL    HW1 3190   0.389   4.852   0.800
  866SOL    HW2 3191   0.429   4.851   0.654
  867SOL     OW 3192   1.020   4.268   0.034
  867SOL    HW1 3193   1.002   4.348  -0.016
  867SOL    HW2 3194   1.096   4.290   0.088
  868SOL     OW 3195   0.073   4.280   1.389
  868SOL    HW1 3196   0.163   4.279   1.356
  868SOL    HW2 3197   0.072   4.350   1.454
  869SOL     OW 3198   0.564   3.949   1.157
  869SOL    HW1 3199   0.597   3.866   1.193
  869SOL    HW2 3200   0.474   3.954   1.189
  870SOL     OW 3201   0.871   4.182   0.641
  870SOL    HW1 3202   0.828   4.240   0.578
  870SOL    HW2 3203   0.888   4.102   0.592
  871SOL     OW 3204   1.012   3.775   0.758
  871SOL    HW1 3205   0.953   3.766   0.682
  871SOL    HW2 3206   0.995   3.697   0.810
  872SOL     OW 3207   1.435   4.889   0.861
  872SOL    HW1 3208   1.370   4.819   0.855
  872SOL    HW2 3209   1.454   4.912   0.771
  873SOL     OW 3210   1.473   4.326   0.977
  873SOL    HW1 3211   1.431   4.240   0.979
  873SOL    HW2 3212   1.541   4.321   1.045
  874SOL     OW 3213   1.852   4.548   0.378
  874SOL    HW1 3214   1.901   4.490   0.436
  874SOL    HW2 3215   1.820   4.489   0.309
  875SOL     OW 3216   0.493   5.116   0.159
  875SOL    HW1 3217   0.422   5.093   0.220
  875SOL    HW2 3218   0.448   5.140   0.078
  876SOL     OW 3219   1.666   4.994   0.657
  876SOL    HW1 3220   1.761   5.005   0.666
  876SOL    HW2 3221   1.630   5.081   0.676
  877SOL     OW 3222   1.384   4.297   0.072
  877SOL    HW1 3223   1.334   4.275   0.151
  877SOL    HW2 3224   1.471   4.260   0.087
  878SOL     OW 3225   0.528   3.985   0.327
  878SOL    HW1 3226   0.559   3.930   0.254
  878SOL    HW2 3227   0.517   4.072   0.288
  879SOL     OW 3228   1.754   4.954   1.582
  879SOL    HW1 3229   1.843   4.917   1.577
  879SOL    HW2 3230   1.767   5.044   1.610
  880SOL     OW 3231   1.065   5.078   1.338
  880SOL    HW1 3232   0.989   5.045   1.386
  880SOL    HW2 3233   1.140   5.036   1.381
  881SOL     OW 3234   1.594   5.342   1.631
  881SOL    HW1 3235   1.610   5.398   1.555
  881SOL    HW2 3236   1.681   5.309   1.655
  882SOL     OW 3237   1.118   4.922   1.107
  882SOL    HW1 3238   1.064   4.963   1.175
  882SOL    HW2 3239   1.082   4.954   1.024
  883SOL     OW 3240   1.634   4.824   1.080
  883SOL    HW1 3241   1.633   4.892   1.147
  883SOL    HW2 3242   1.553   4.836   1.032
  884SOL     OW 3243   0.916   3.820   1.404
  884SOL    HW1 3244   0.938   3.803   1.312
  884SOL    HW2 3245   0.993   3.864   1.439
  885SOL     OW 3246   0.983   4.838   1.719
  885SOL    HW1 3247   0.889   4.848   1.735
  885SOL    HW2 3248   0.990   4.760   1.664
  886SOL     OW 3249   0.707   4.781   0.372
  886SOL    HW1 3250   0.696   4.773   0.467
  886SOL    HW2 3251   0.785   4.728   0.353
  887SOL     OW 3252   0.414   4.536   1.250
  887SOL    HW1 3253   0.486   4.547   1.312
  887SOL    HW2 3254   0.377   4.451   1.271
  888SOL     OW 3255   0.061   5.293   1.341
  888SOL    HW1 3256   0.028   5.369   1.294
  888SOL    HW2 3257   0.156   5.307   1.345
  889SOL     OW 3258   0.358   4.827   0.496
  889SOL    HW1 3259   0.362   4.902   0.437
  889SOL    HW2 3260   0.366   4.751   0.439
  890SOL     OW 3261   0.561   4.262   0.863
  890SOL    HW1 3262   0.578   4.322   0.791
  890SOL    HW2 3263   0.614   4.295   0.935
  891SOL     OW 3264   1.248   5.071   0.392
  891SOL    HW1 3265   1.299   5.145   0.424
  891SOL    HW2 3266   1.159   5.087   0.423
  892SOL     OW 3267   1.274   5.174   1.146
  892SOL    HW1 3268   1.322   5.176   1.228
  892SOL    HW2 3269   1.216   5.098   1.154
  893SOL     OW 3270   1.585   4.357   0.475
  893SOL    HW1 3271   1.546   4.417   0.538
  893SOL    HW2 3272   1.627   4.414   0.410
  894SOL     OW 3273   0.350   5.236   1.325
  894SOL    HW1 3274   0.334   5.199   1.238
  894SOL    HW2 3275   0.444   5.258   1.325
  895SOL     OW 3276   0.409   4.471   1.601
  895SOL    HW1 3277   0.470   4.518   1.544
  895SOL    HW2 3278   0.451   4.387   1.617
  896SOL     OW 3279   1.590   4.499   1.674
  896SOL    HW1 3280   1.504   4.540   1.667
  896SOL    HW2 3281   1.644   4.544   1.609
  897SOL     OW 3282   1.000   3.833   1.762
  897SOL    HW1 3283   1.036   3.910   1.719
  897SOL    HW2 3284   1.050   3.760   1.726
  898SOL     OW 3285   0.502   3.773   1.742
  898SOL    HW1 3286   0.462   3.717   1.676
  898SOL    HW2 3287   0.435   3.840   1.761
  899SOL     OW 3288   0.580   4.594   1.031
  899SOL    HW1 3289   0.612   4.684   1.024
  899SOL    HW2 3290   0.520   4.595   1.106
  900SOL     OW 3291   1.363   4.584   1.040
  900SOL    HW1 3292   1.285   4.586   0.983
  900SOL    HW2 3293   1.391   4.492   1.038
  901SOL     OW 3294   1.210   4.251   0.274
  901SOL    HW1 3295   1.217   4.173   0.328
  901SOL    HW2 3296   1.173   4.318   0.332
  902SOL     OW 3297   0.304   3.931   1.240
  902SOL    HW1 3298   0.273   3.963   1.324
  902SOL    HW2 3299   0.280   3.838   1.239
  903SOL     OW 3300   0.040   5.031   1.277
  903SOL    HW1 3301   0.081   4.985   1.351
  903SOL    HW2 3302   0.050   5.124   1.298
  904SOL     OW 3303   0.730   4.358   1.063
  904SOL    HW1 3304   0.795   4.337   0.996
  904SOL    HW2 3305   0.702   4.447   1.043
  905SOL     OW 3306   1.732   4.679   1.850
  905SOL    HW1 3307   1.681   4.639   1.780
  905SOL    HW2 3308   1.669   4.692   1.921
  906SOL     OW 3309   0.302   3.791   0.622
  906SOL    HW1 3310   0.288   3.881   0.652
  906SOL    HW2 3311   0.302   3.739   0.702
  907SOL     OW 3312   1.610   4.093   0.370
  907SOL    HW1 3313   1.636   4.028   0.436
  907SOL    HW2 3314   1.584   4.169   0.421
  908SOL     OW 3315   1.026   4.486   0.965
  908SOL    HW1 3316   1.031   4.504   1.059
  908SOL    HW2 3317   0.997   4.395   0.959
  909SOL     OW 3318   0.981   5.294   1.700
  909SOL    HW1 3319   0.961   5.332   1.614
  909SOL    HW2 3320   1.022   5.210   1.680
  910SOL     OW 3321   1.860   5.237   1.606
  910SOL    HW1 3322   1.876   5.263   1.515
  910SOL    HW2 3323   1.939   5.264   1.653
  911SOL     OW 3324   0.350   4.638   1.805
  911SOL    HW1 3325   0.432   4.658   1.850
  911SOL    HW2 3326   0.376   4.578   1.735
  912SOL     OW 3327   1.540   3.999   0.123
  912SOL    HW1 3328   1.477   3.930   0.146
  912SOL    HW2 3329   1.566   4.037   0.207
  913SOL     OW 3330   1.303   4.555   0.035
  913SOL    HW1 3331   1.336   4.465   0.043
  913SOL    HW2 3332   1.319   4.578  -0.056
  914SOL     OW 3333   1.069   5.055   0.853
  914SOL    HW1 3334   1.071   4.983   0.791
  914SOL    HW2 3335   1.128   5.121   0.815
  915SOL     OW 3336   0.315   4.537   0.950
  915SOL    HW1 3337   0.408   4.559   0.948
  915SOL    HW2 3338   0.311   4.450   0.991
  916SOL     OW 3339   0.337   4.238   1.009
  916SOL    HW1 3340   0.295   4.154   0.990
  916SOL    HW2 3341   0.411   4.243   0.948
  917SOL     OW 3342   1.136   4.105   1.677
  917SOL    HW1 3343   1.094   4.161   1.743
  917SOL    HW2 3344   1.225   4.139   1.670
  918SOL     OW 3345   1.156   3.930   1.474
  918SOL    HW1 3346   1.152   3.989   1.548
  918SOL    HW2 3347   1.190   3.983   1.402
  919SOL     OW 3348   7.504   5.055   0.194
  919SOL    HW1 3349   7.412   5.060   0.167
  919SOL    HW2 3350   7.517   4.963   0.219
  920SOL     OW 3351   0.083   0.055   0.935
  920SOL    HW1 3352   0.039  -0.020   0.896
  920SOL    HW2 3353   0.169   0.058   0.893
  921SOL     OW 3354   0.505   5.291   0.912
  921SOL    HW1 3355   0.566   5.364   0.909
  921SOL    HW2 3356   0.547   5.223   0.859
  922SOL     OW 3357   0.996   4.520   1.232
  922SOL    HW1 3358   1.041   4.491   1.311
  922SOL    HW2 3359   0.907   4.488   1.242
  923SOL     OW 3360   0.031   4.267   1.115
  923SOL    HW1 3361   0.115   4.244   1.076
  923SOL    HW2 3362   0.051   4.276   1.209
  924SOL     OW 3363   0.188   4.240   1.722
  924SOL    HW1 3364   0.247   4.209   1.654
  924SOL    HW2 3365   0.136   4.308   1.680
  925SOL     OW 3366   1.375   4.668   1.660
  925SOL    HW1 3367   1.398   4.761   1.667
  925SOL    HW2 3368   1.374   4.651   1.566
  926SOL     OW 3369   0.815   4.294   0.344
  926SOL    HW1 3370   0.817   4.216   0.289
  926SOL    HW2 3371   0.732   4.336   0.322
  927SOL     OW 3372   0.262   5.283   1.743
  927SOL    HW1 3373   0.221   5.340   1.808
  927SOL    HW2 3374   0.244   5.195   1.774
  928SOL     OW 3375   0.685   4.182   1.267
  928SOL    HW1 3376   0.640   4.105   1.234
  928SOL    HW2 3377   0.690   4.241   1.191
  929SOL     OW 3378   0.470   4.218   0.198
  929SOL    HW1 3379   0.526   4.296   0.202
  929SOL    HW2 3380   0.381   4.253   0.191
  930SOL     OW 3381   0.153   4.864   1.467
  930SOL    HW1 3382   0.164   4.807   1.543
  930SOL    HW2 3383   0.168   4.806   1.392
  931SOL     OW 3384   1.338   4.776   1.230
  931SOL    HW1 3385   1.361   4.717   1.158
  931SOL    HW2 3386   1.259   4.821   1.199
  932SOL     OW 3387   1.306   4.573   0.311
  932SOL    HW1 3388   1.221   4.551   0.351
  932SOL    HW2 3389   1.290   4.569   0.217
  933SOL     OW 3390   1.755   5.442   1.159
  933SOL    HW1 3391   1.793   5.486   1.083
  933SOL    HW2 3392   1.728   5.356   1.126
  934SOL     OW 3393   1.249   5.441   1.125
  934SOL    HW1 3394   1.331   5.462   1.080
  934SOL    HW2 3395   1.251   5.346   1.137
  935SOL     OW 3396   0.081   4.978   1.018
  935SOL    HW1 3397   0.070   4.991   1.112
  935SOL    HW2 3398  -0.002   4.940   0.989
  936SOL     OW 3399   0.906   3.815   0.129
  936SOL    HW1 3400   0.954   3.802   0.047
  936SOL    HW2 3401   0.955   3.765   0.194
  937SOL     OW 3402   1.717   3.861   0.516
  937SOL    HW1 3403   1.793   3.847   0.459
  937SOL    HW2 3404   1.702   3.777   0.558
  938SOL     OW 3405   1.388   5.295   0.480
  938SOL    HW1 3406   1.457   5.307   0.415
  938SOL    HW2 3407   1.353   5.383   0.494
  939SOL     OW 3408   0.115   0.060   1.840
  939SOL    HW1 3409   0.077  -0.010   1.893
  939SOL    HW2 3410   0.183   0.099   1.896
  940SOL     OW 3411   1.277   4.647   0.672
  940SOL    HW1 3412   1.348   4.582   0.672
  940SOL    HW2 3413   1.311   4.719   0.619
  941SOL     OW 3414   0.825   4.995   1.430
  941SOL    HW1 3415   0.805   5.031   1.516
  941SOL    HW2 3416   0.747   5.015   1.378
  942SOL     OW 3417   0.693   5.315   0.148
  942SOL    HW1 3418   0.658   5.351   0.066
  942SOL    HW2 3419   0.628   5.250   0.175
  943SOL     OW 3420   1.853   3.913   0.916
  943SOL    HW1 3421   1.882   3.822   0.921
  943SOL    HW2 3422   1.758   3.908   0.923
  944SOL     OW 3423   0.268   4.045   0.721
  944SOL    HW1 3424   0.186   4.084   0.691
  944SOL    HW2 3425   0.255   4.033   0.815
  945SOL     OW 3426   1.161   5.340   0.059
  945SOL    HW1 3427   1.185   5.250   0.080
  945SOL    HW2 3428   1.164   5.345  -0.037
  946SOL     OW 3429   0.825   4.729   1.372
  946SOL    HW1 3430   0.864   4.728   1.284
  946SOL    HW2 3431   0.828   4.820   1.399
  947SOL     OW 3432   0.916   4.634   0.290
  947SOL    HW1 3433   0.978   4.669   0.225
  947SOL    HW2 3434   0.961   4.560   0.329
  948SOL     OW 3435   0.371   5.018   1.491
  948SOL    HW1 3436   0.356   5.101   1.446
  948SOL    HW2 3437   0.292   4.967   1.474
  949SOL     OW 3438   1.610   5.008   1.286
  949SOL    HW1 3439   1.672   5.010   1.359
  949SOL    HW2 3440   1.550   5.080   1.304
  950SOL     OW 3441   1.042   4.825   0.702
  950SOL    HW1 3442   0.974   4.774   0.744
  950SOL    HW2 3443   1.100   4.760   0.662
  951SOL     OW 3444   1.021   3.963   0.965
  951SOL    HW1 3445   1.010   3.917   0.882
  951SOL    HW2 3446   1.007   3.895   1.031
  952SOL     OW 3447   0.588   5.203   0.487
  952SOL    HW1 3448   0.634   5.163   0.413
  952SOL    HW2 3449   0.558   5.287   0.452
  953SOL     OW 3450   0.258   5.075   0.286
  953SOL    HW1 3451   0.165   5.068   0.263
  953SOL    HW2 3452   0.258   5.112   0.375
  954SOL     OW 3453   0.105   4.736   1.724
  954SOL    HW1 3454   0.032   4.707   1.779
  954SOL    HW2 3455   0.183   4.704   1.769
  955SOL     OW 3456   0.670   3.922   1.495
  955SOL    HW1 3457   0.755   3.906   1.453
  955SOL    HW2 3458   0.691   3.940   1.586
  956SOL     OW 3459   0.069   4.067   0.037
  956SOL    HW1 3460  -0.022   4.049   0.010
  956SOL    HW2 3461   0.093   4.145  -0.012
  957SOL     OW 3462   1.437   4.581   1.400
  957SOL    HW1 3463   1.387   4.638   1.341
  957SOL    HW2 3464   1.528   4.595   1.375
  958SOL     OW 3465   0.065   3.884   0.315
  958SOL    HW1 3466   0.058   3.965   0.265
  958SOL    HW2 3467   0.151   3.848   0.292
  959SOL     OW 3468   1.186   5.072   0.119
  959SOL    HW1 3469   1.094   5.045   0.116
  959SOL    HW2 3470   1.211   5.063   0.211
  960SOL     OW 3471   0.615   4.560   1.430
  960SOL    HW1 3472   0.670   4.637   1.417
  960SOL    HW2 3473   0.677   4.487   1.438
  961SOL     OW 3474   0.715   4.289   1.709
  961SOL    HW1 3475   0.743   4.352   1.775
  961SOL    HW2 3476   0.767   4.210   1.728
  962SOL     OW 3477   1.460   4.932   1.634
  962SOL    HW1 3478   1.451   4.942   1.729
  962SOL    HW2 3479   1.554   4.940   1.618
  963SOL     OW 3480   1.678   4.607   1.253
  963SOL    HW1 3481   1.651   4.529   1.206
  963SOL    HW2 3482   1.670   4.678   1.188
  964SOL     OW 3483   1.221   4.045   0.455
  964SOL    HW1 3484   1.287   3.975   0.445
  964SOL    HW2 3485   1.249   4.092   0.533
  965SOL     OW 3486   0.594   4.467   0.660
  965SOL    HW1 3487   0.635   4.552   0.642
  965SOL    HW2 3488   0.517   4.465   0.603
  966SOL     OW 3489   1.771   4.080   1.646
  966SOL    HW1 3490   1.760   4.095   1.553
  966SOL    HW2 3491   1.696   4.026   1.672
  967SOL     OW 3492   1.734   4.659   1.514
  967SOL    HW1 3493   1.757   4.751   1.527
  967SOL    HW2 3494   1.727   4.649   1.419
  968SOL     OW 3495   0.903   5.098   0.039
  968SOL    HW1 3496   0.834   5.102   0.106
  968SOL    HW2 3497   0.901   5.184  -0.003
  969SOL     OW 3498   0.862   4.684   0.858
  969SOL    HW1 3499   0.914   4.617   0.903
  969SOL    HW2 3500   0.833   4.743   0.928
  970SOL     OW 3501   1.097   4.726   0.100
  970SOL    HW1 3502   1.047   4.738   0.019
  970SOL    HW2 3503   1.165   4.663   0.077
  971SOL     OW 3504   1.861   5.295   0.847
  971SOL    HW1 3505   1.785   5.280   0.791
  971SOL    HW2 3506   1.857   5.226   0.913
  972SOL     OW 3507   0.223   5.032   1.852
  972SOL    HW1 3508   0.156   4.968   1.828
  972SOL    HW2 3509   0.213   5.044   1.946
  973SOL     OW 3510   0.082   4.964   0.656
  973SOL    HW1 3511   0.079   4.917   0.739
  973SOL    HW2 3512   0.154   4.924   0.608
  974SOL     OW 3513   0.677   5.120   1.621
  974SOL    HW1 3514   0.600   5.074   1.653
  974SOL    HW2 3515   0.666   5.210   1.654
  975SOL     OW 3516   0.430   4.155   0.522
  975SOL    HW1 3517   0.456   4.082   0.465
  975SOL    HW2 3518   0.387   4.112   0.596
  976SOL     OW 3519   1.706   5.196   1.093
  976SOL    HW1 3520   1.616   5.175   1.068
  976SOL    HW2 3521   1.721   5.145   1.173
  977SOL     OW 3522   0.323   4.273   1.287
  977SOL    HW1 3523   0.373   4.216   1.346
  977SOL    HW2 3524   0.350   4.247   1.199
  978SOL     OW 3525   0.827   5.283   0.686
  978SOL    HW1 3526   0.825   5.340   0.609
  978SOL    HW2 3527   0.740   5.243   0.689
  979SOL     OW 3528   0.998   3.749   1.148
  979SOL    HW1 3529   0.941   3.679   1.116
  979SOL    HW2 3530   1.085   3.709   1.150
  980SOL     OW 3531   0.769   5.053   0.305
  980SOL    HW1 3532   0.732   4.965   0.318
  980SOL    HW2 3533   0.855   5.050   0.346
  981SOL     OW 3534   0.620   5.294   1.284
  981SOL    HW1 3535   0.626   5.369   1.342
  981SOL    HW2 3536   0.707   5.284   1.246
  982SOL     OW 3537   1.352   3.777   0.166
  982SOL    HW1 3538   1.379   3.732   0.086
  982SOL    HW2 3539   1.266   3.739   0.187
  983SOL     OW 3540   1.299   4.183   0.684
  983SOL    HW1 3541   1.242   4.259   0.696
  983SOL    HW2 3542   1.302   4.141   0.770
  984SOL     OW 3543   1.584   3.937   0.882
  984SOL    HW1 3544   1.500   3.951   0.926
  984SOL    HW2 3545   1.594   4.012   0.824
  985SOL     OW 3546   0.039   4.798   0.299
  985SOL    HW1 3547   0.133   4.784   0.299
  985SOL    HW2 3548   0.002   4.716   0.333
  986SOL     OW 3549   0.231   4.351   1.979
  986SOL    HW1 3550   0.141   4.349   2.011
  986SOL    HW2 3551   0.226   4.317   1.889
  987SOL     OW 3552   0.216   3.998   2.851
  987SOL    HW1 3553   0.251   3.976   2.938
  987SOL    HW2 3554   0.130   3.956   2.849
  988SOL     OW 3555   7.518   4.105   2.501
  988SOL    HW1 3556   7.437   4.126   2.548
  988SOL    HW2 3557   7.497   4.027   2.450
  989SOL     OW 3558   0.567   5.000   3.030
  989SOL    HW1 3559   0.479   5.000   2.993
  989SOL    HW2 3560   0.578   5.087   3.067
  990SOL     OW 3561   1.557   5.239   2.564
  990SOL    HW1 3562   1.506   5.222   2.643
  990SOL    HW2 3563   1.492   5.248   2.495
  991SOL     OW 3564   1.129   4.425   2.571
  991SOL    HW1 3565   1.183   4.503   2.555
  991SOL    HW2 3566   1.081   4.445   2.652
  992SOL     OW 3567   1.759   4.333   2.095
  992SOL    HW1 3568   1.744   4.320   2.001
  992SOL    HW2 3569   1.728   4.252   2.136
  993SOL     OW 3570   0.765   4.870   2.894
  993SOL    HW1 3571   0.692   4.898   2.948
  993SOL    HW2 3572   0.795   4.949   2.850
  994SOL     OW 3573   0.687   4.737   2.517
  994SOL    HW1 3574   0.749   4.718   2.588
  994SOL    HW2 3575   0.616   4.785   2.560
  995SOL     OW 3576   0.331   5.156   2.930
  995SOL    HW1 3577   0.260   5.125   2.874
  995SOL    HW2 3578   0.386   5.208   2.871
  996SOL     OW 3579   1.467   5.226   3.206
  996SOL    HW1 3580   1.478   5.320   3.223
  996SOL    HW2 3581   1.431   5.190   3.287
  997SOL     OW 3582   0.444   4.121   3.352
  997SOL    HW1 3583   0.518   4.060   3.361
  997SOL    HW2 3584   0.366   4.066   3.364
  998SOL     OW 3585   1.611   4.174   2.599
  998SOL    HW1 3586   1.536   4.209   2.551
  998SOL    HW2 3587   1.643   4.247   2.651
  999SOL     OW 3588   0.223   5.165   2.392
  999SOL    HW1 3589   0.204   5.256   2.414
  999SOL    HW2 3590   0.164   5.114   2.449
 1000SOL     OW 3591   0.242   4.812   2.747
 1000SOL    HW1 3592   0.250   4.731   2.797
 1000SOL    HW2 3593   0.190   4.870   2.803
 1001SOL     OW 3594   0.595   4.698   1.990
 1001SOL    HW1 3595   0.627   4.762   1.927
 1001SOL    HW2 3596   0.642   4.718   2.071
 1002SOL     OW 3597   1.593   3.841   3.343
 1002SOL    HW1 3598   1.585   3.913   3.279
 1002SOL    HW2 3599   1.589   3.884   3.428
 1003SOL     OW 3600   0.116   4.370   2.423
 1003SOL    HW1 3601   0.084   4.283   2.445
 1003SOL    HW2 3602   0.108   4.420   2.504
 1004SOL     OW 3603   0.019   5.317   1.982
 1004SOL    HW1 3604   0.012   5.225   2.006
 1004SOL    HW2 3605   0.000   5.365   2.062
 1005SOL     OW 3606   1.690   4.644   2.490
 1005SOL    HW1 3607   1.779   4.611   2.480
 1005SOL    HW2 3608   1.675   4.696   2.411
 1006SOL     OW 3609   1.644   4.833   2.293
 1006SOL    HW1 3610   1.728   4.843   2.248
 1006SOL    HW2 3611   1.651   4.890   2.369
 1007SOL     OW 3612   0.117   4.462   3.449
 1007SOL    HW1 3613   0.207   4.468   3.481
 1007SOL    HW2 3614   0.086   4.552   3.445
 1008SOL     OW 3615   0.609   5.099   2.596
 1008SOL    HW1 3616   0.564   5.015   2.602
 1008SOL    HW2 3617   0.593   5.129   2.506
 1009SOL     OW 3618   1.299   4.962   3.296
 1009SOL    HW1 3619   1.327   4.894   3.234
 1009SOL    HW2 3620   1.349   4.943   3.376
 1010SOL     OW 3621   0.807   3.722   2.362
 1010SOL    HW1 3622   0.849   3.808   2.355
 1010SOL    HW2 3623   0.715   3.741   2.376
 1011SOL     OW 3624   0.195   4.697   3.125
 1011SOL    HW1 3625   0.278   4.651   3.112
 1011SOL    HW2 3626   0.128   4.634   3.099
 1012SOL     OW 3627   1.532   4.716   2.054
 1012SOL    HW1 3628   1.464   4.653   2.077
 1012SOL    HW2 3629   1.569   4.744   2.138
 1013SOL     OW 3630   1.461   5.146   2.815
 1013SOL    HW1 3631   1.397   5.151   2.886
 1013SOL    HW2 3632   1.454   5.056   2.783
 1014SOL     OW 3633   0.595   4.449   2.126
 1014SOL    HW1 3634   0.611   4.525   2.070
 1014SOL    HW2 3635   0.528   4.479   2.188
 1015SOL     OW 3636   1.282   4.068   2.796
 1015SOL    HW1 3637   1.194   4.030   2.799
 1015SOL    HW2 3638   1.332   4.017   2.859
 1016SOL     OW 3639   1.588   5.376   2.169
 1016SOL    HW1 3640   1.663   5.436   2.166
 1016SOL    HW2 3641   1.559   5.370   2.078
 1017SOL     OW 3642   0.802   4.334   3.318
 1017SOL    HW1 3643   0.767   4.321   3.406
 1017SOL    HW2 3644   0.751   4.275   3.262
 1018SOL     OW 3645   0.969   4.619   3.432
 1018SOL    HW1 3646   1.014   4.542   3.397
 1018SOL    HW2 3647   0.913   4.649   3.360
 1019SOL     OW 3648   0.991   4.135   3.105
 1019SOL    HW1 3649   0.911   4.164   3.147
 1019SOL    HW2 3650   0.962   4.088   3.027
 1020SOL     OW 3651   1.047   4.424   2.290
 1020SOL    HW1 3652   1.061   4.418   2.385
 1020SOL    HW2 3653   0.965   4.376   2.275
 1021SOL     OW 3654   0.085   4.540   2.638
 1021SOL    HW1 3655   0.171   4.531   2.679
 1021SOL    HW2 3656   0.049   4.621   2.674
 1022SOL     OW 3657   0.121   0.064   3.444
 1022SOL    HW1 3658   0.107   0.060   3.539
 1022SOL    HW2 3659   0.041   0.104   3.410
 1023SOL     OW 3660   0.873   4.069   2.055
 1023SOL    HW1 3661   0.927   4.128   2.003
 1023SOL    HW2 3662   0.897   3.981   2.024
 1024SOL     OW 3663   1.370   4.867   2.405
 1024SOL    HW1 3664   1.448   4.848   2.354
 1024SOL    HW2 3665   1.320   4.930   2.352
 1025SOL     OW 3666   0.547   3.914   2.751
 1025SOL    HW1 3667   0.549   3.931   2.845
 1025SOL    HW2 3668   0.553   4.001   2.711
 1026SOL     OW 3669   1.009   5.182   2.335
 1026SOL    HW1 3670   0.959   5.253   2.294
 1026SOL    HW2 3671   0.996   5.195   2.429
 1027SOL     OW 3672   1.797   4.788   2.729
 1027SOL    HW1 3673   1.734   4.773   2.658
 1027SOL    HW2 3674   1.743   4.793   2.807
 1028SOL     OW 3675   1.224   5.265   3.357
 1028SOL    HW1 3676   1.232   5.186   3.412
 1028SOL    HW2 3677   1.169   5.238   3.284
 1029SOL     OW 3678   0.320   4.675   2.105
 1029SOL    HW1 3679   0.403   4.698   2.063
 1029SOL    HW2 3680   0.295   4.592   2.063
 1030SOL     OW 3681   1.468   4.458   2.590
 1030SOL    HW1 3682   1.457   4.407   2.670
 1030SOL    HW2 3683   1.543   4.515   2.607
 1031SOL     OW 3684   0.203   4.001   3.351
 1031SOL    HW1 3685   0.129   4.060   3.335
 1031SOL    HW2 3686   0.184   3.962   3.436
 1032SOL     OW 3687   1.628   5.104   1.952
 1032SOL    HW1 3688   1.594   5.186   1.918
 1032SOL    HW2 3689   1.560   5.039   1.931
 1033SOL     OW 3690   1.401   3.833   2.289
 1033SOL    HW1 3691   1.385   3.803   2.200
 1033SOL    HW2 3692   1.496   3.841   2.296
 1034SOL     OW 3693   0.386   4.421   2.342
 1034SOL    HW1 3694   0.416   4.331   2.346
 1034SOL    HW2 3695   0.293   4.416   2.364
 1035SOL     OW 3696   0.620   3.851   1.973
 1035SOL    HW1 3697   0.706   3.809   1.981
 1035SOL    HW2 3698   0.585   3.818   1.891
 1036SOL     OW 3699   0.882   5.240   3.046
 1036SOL    HW1 3700   0.862   5.197   2.963
 1036SOL    HW2 3701   0.942   5.181   3.090
 1037SOL     OW 3702   1.342   4.313   3.302
 1037SOL    HW1 3703   1.383   4.283   3.383
 1037SOL    HW2 3704   1.378   4.400   3.288
 1038SOL     OW 3705   0.809   5.125   2.794
 1038SOL    HW1 3706   0.891   5.130   2.746
 1038SOL    HW2 3707   0.742   5.122   2.725
 1039SOL     OW 3708   0.925   4.231   2.765
 1039SOL    HW1 3709   0.901   4.221   2.673
 1039SOL    HW2 3710   0.964   4.147   2.790
 1040SOL     OW 3711   0.546   3.786   2.372
 1040SOL    HW1 3712   0.465   3.788   2.423
 1040SOL    HW2 3713   0.542   3.865   2.318
 1041SOL     OW 3714   1.430   4.919   1.902
 1041SOL    HW1 3715   1.462   4.845   1.954
 1041SOL    HW2 3716   1.343   4.938   1.938
 1042SOL     OW 3717   0.295   3.765   2.040
 1042SOL    HW1 3718   0.351   3.837   2.012
 1042SOL    HW2 3719   0.355   3.703   2.081
 1043SOL     OW 3720   0.934   3.963   2.334
 1043SOL    HW1 3721   0.900   4.007   2.255
 1043SOL    HW2 3722   1.029   3.970   2.326
 1044SOL     OW 3723   1.079   4.402   3.323
 1044SOL    HW1 3724   1.006   4.339   3.321
 1044SOL    HW2 3725   1.157   4.349   3.309
 1045SOL     OW 3726   1.233   5.282   2.649
 1045SOL    HW1 3727   1.238   5.366   2.602
 1045SOL    HW2 3728   1.291   5.294   2.724
 1046SOL     OW 3729   0.463   4.869   2.604
 1046SOL    HW1 3730   0.389   4.852   2.662
 1046SOL    HW2 3731   0.429   4.851   2.516
 1047SOL     OW 3732   1.030   4.273   1.877
 1047SOL    HW1 3733   0.990   4.356   1.853
 1047SOL    HW2 3734   1.091   4.295   1.948
 1048SOL     OW 3735   0.075   4.275   3.255
 1048SOL    HW1 3736   0.164   4.278   3.219
 1048SOL    HW2 3737   0.072   4.349   3.316
 1049SOL     OW 3738   0.564   3.949   3.020
 1049SOL    HW1 3739   0.596   3.865   3.053
 1049SOL    HW2 3740   0.474   3.954   3.050
 1050SOL     OW 3741   0.870   4.182   2.503
 1050SOL    HW1 3742   0.828   4.240   2.440
 1050SOL    HW2 3743   0.888   4.102   2.454
 1051SOL     OW 3744   1.013   3.774   2.618
 1051SOL    HW1 3745   0.952   3.766   2.545
 1051SOL    HW2 3746   0.995   3.698   2.673
 1052SOL     OW 3747   1.434   4.891   2.723
 1052SOL    HW1 3748   1.371   4.818   2.718
 1052SOL    HW2 3749   1.454   4.911   2.632
 1053SOL     OW 3750   1.470   4.320   2.849
 1053SOL    HW1 3751   1.430   4.233   2.856
 1053SOL    HW2 3752   1.534   4.323   2.920
 1054SOL     OW 3753   1.849   4.549   2.242
 1054SOL    HW1 3754   1.901   4.492   2.298
 1054SOL    HW2 3755   1.821   4.491   2.171
 1055SOL     OW 3756   0.492   5.127   2.029
 1055SOL    HW1 3757   0.415   5.098   2.078
 1055SOL    HW2 3758   0.464   5.125   1.937
 1056SOL     OW 3759   1.666   4.995   2.517
 1056SOL    HW1 3760   1.760   5.004   2.528
 1056SOL    HW2 3761   1.631   5.081   2.538
 1057SOL     OW 3762   1.392   4.297   1.935
 1057SOL    HW1 3763   1.337   4.277   2.010
 1057SOL    HW2 3764   1.478   4.261   1.958
 1058SOL     OW 3765   0.526   3.985   2.188
 1058SOL    HW1 3766   0.559   3.931   2.115
 1058SOL    HW2 3767   0.518   4.073   2.151
 1059SOL     OW 3768   1.761   4.945   3.434
 1059SOL    HW1 3769   1.853   4.918   3.433
 1059SOL    HW2 3770   1.763   5.034   3.470
 1060SOL     OW 3771   1.068   5.078   3.203
 1060SOL    HW1 3772   0.990   5.045   3.248
 1060SOL    HW2 3773   1.141   5.032   3.244
 1061SOL     OW 3774   1.599   5.343   3.500
 1061SOL    HW1 3775   1.604   5.398   3.422
 1061SOL    HW2 3776   1.688   5.310   3.512
 1062SOL     OW 3777   1.119   4.924   2.969
 1062SOL    HW1 3778   1.062   4.963   3.036
 1062SOL    HW2 3779   1.082   4.954   2.886
 1063SOL     OW 3780   1.636   4.826   2.940
 1063SOL    HW1 3781   1.633   4.891   3.010
 1063SOL    HW2 3782   1.552   4.835   2.895
 1064SOL     OW 3783   0.917   3.822   3.267
 1064SOL    HW1 3784   0.936   3.799   3.176
 1064SOL    HW2 3785   0.997   3.865   3.299
 1065SOL     OW 3786   0.706   4.781   2.234
 1065SOL    HW1 3787   0.694   4.773   2.328
 1065SOL    HW2 3788   0.784   4.728   2.215
 1066SOL     OW 3789   0.414   4.536   3.112
 1066SOL    HW1 3790   0.485   4.547   3.175
 1066SOL    HW2 3791   0.376   4.451   3.134
 1067SOL     OW 3792   1.271   4.105   3.131
 1067SOL    HW1 3793   1.298   4.183   3.180
 1067SOL    HW2 3794   1.185   4.127   3.096
 1068SOL     OW 3795   0.062   5.296   3.206
 1068SOL    HW1 3796   0.029   5.367   3.151
 1068SOL    HW2 3797   0.157   5.305   3.203
 1069SOL     OW 3798   0.360   4.826   2.358
 1069SOL    HW1 3799   0.362   4.901   2.299
 1069SOL    HW2 3800   0.363   4.750   2.301
 1070SOL     OW 3801   0.561   4.262   2.725
 1070SOL    HW1 3802   0.578   4.322   2.653
 1070SOL    HW2 3803   0.615   4.295   2.797
 1071SOL     OW 3804   1.248   5.072   2.251
 1071SOL    HW1 3805   1.299   5.145   2.286
 1071SOL    HW2 3806   1.160   5.087   2.285
 1072SOL     OW 3807   1.273   5.174   3.008
 1072SOL    HW1 3808   1.323   5.175   3.089
 1072SOL    HW2 3809   1.217   5.097   3.014
 1073SOL     OW 3810   1.582   4.356   2.336
 1073SOL    HW1 3811   1.547   4.418   2.400
 1073SOL    HW2 3812   1.630   4.411   2.273
 1074SOL     OW 3813   0.349   5.234   3.188
 1074SOL    HW1 3814   0.335   5.198   3.100
 1074SOL    HW2 3815   0.442   5.258   3.189
 1075SOL     OW 3816   0.402   4.472   3.462
 1075SOL    HW1 3817   0.466   4.524   3.414
 1075SOL    HW2 3818   0.448   4.391   3.484
 1076SOL     OW 3819   1.591   4.491   3.526
 1076SOL    HW1 3820   1.513   4.545   3.537
 1076SOL    HW2 3821   1.652   4.546   3.476
 1077SOL     OW 3822   0.580   4.594   2.893
 1077SOL    HW1 3823   0.612   4.684   2.887
 1077SOL    HW2 3824   0.521   4.595   2.968
 1078SOL     OW 3825   1.362   4.585   2.902
 1078SOL    HW1 3826   1.286   4.580   2.844
 1078SOL    HW2 3827   1.395   4.495   2.906
 1079SOL     OW 3828   1.210   4.253   2.135
 1079SOL    HW1 3829   1.217   4.173   2.188
 1079SOL    HW2 3830   1.172   4.318   2.194
 1080SOL     OW 3831   0.305   3.930   3.101
 1080SOL    HW1 3832   0.274   3.963   3.185
 1080SOL    HW2 3833   0.280   3.838   3.100
 1081SOL     OW 3834   0.042   5.032   3.138
 1081SOL    HW1 3835   0.080   4.985   3.213
 1081SOL    HW2 3836   0.050   5.124   3.162
 1082SOL     OW 3837   0.730   4.358   2.926
 1082SOL    HW1 3838   0.795   4.337   2.859
 1082SOL    HW2 3839   0.702   4.447   2.904
 1083SOL     OW 3840   0.302   3.791   2.484
 1083SOL    HW1 3841   0.288   3.881   2.514
 1083SOL    HW2 3842   0.303   3.738   2.564
 1084SOL     OW 3843   1.610   4.092   2.233
 1084SOL    HW1 3844   1.635   4.028   2.299
 1084SOL    HW2 3845   1.584   4.170   2.282
 1085SOL     OW 3846   1.025   4.487   2.827
 1085SOL    HW1 3847   1.032   4.504   2.921
 1085SOL    HW2 3848   0.998   4.395   2.821
 1086SOL     OW 3849   1.854   5.224   3.446
 1086SOL    HW1 3850   1.881   5.255   3.359
 1086SOL    HW2 3851   1.917   5.263   3.506
 1087SOL     OW 3852   1.533   4.000   1.988
 1087SOL    HW1 3853   1.474   3.930   2.016
 1087SOL    HW2 3854   1.565   4.038   2.070
 1088SOL     OW 3855   1.299   4.554   1.899
 1088SOL    HW1 3856   1.339   4.468   1.905
 1088SOL    HW2 3857   1.326   4.588   1.814
 1089SOL     OW 3858   1.069   5.055   2.715
 1089SOL    HW1 3859   1.071   4.983   2.653
 1089SOL    HW2 3860   1.128   5.121   2.677
 1090SOL     OW 3861   0.315   4.537   2.812
 1090SOL    HW1 3862   0.408   4.559   2.810
 1090SOL    HW2 3863   0.311   4.450   2.853
 1091SOL     OW 3864   0.337   4.238   2.871
 1091SOL    HW1 3865   0.295   4.154   2.851
 1091SOL    HW2 3866   0.411   4.243   2.810
 1092SOL     OW 3867   1.148   3.939   3.339
 1092SOL    HW1 3868   1.169   3.999   3.411
 1092SOL    HW2 3869   1.190   3.978   3.262
 1093SOL     OW 3870   7.505   5.050   2.055
 1093SOL    HW1 3871   7.413   5.057   2.027
 1093SOL    HW2 3872   7.513   4.959   2.084
 1094SOL     OW 3873   0.083   0.055   2.798
 1094SOL    HW1 3874   0.039  -0.021   2.758
 1094SOL    HW2 3875   0.168   0.059   2.755
 1095SOL     OW 3876   0.505   5.291   2.773
 1095SOL    HW1 3877   0.566   5.364   2.771
 1095SOL    HW2 3878   0.547   5.223   2.721
 1096SOL     OW 3879   0.996   4.521   3.093
 1096SOL    HW1 3880   1.041   4.492   3.173
 1096SOL    HW2 3881   0.906   4.489   3.103
 1097SOL     OW 3882   0.032   4.267   2.978
 1097SOL    HW1 3883   0.116   4.244   2.938
 1097SOL    HW2 3884   0.051   4.276   3.071
 1098SOL     OW 3885   0.814   4.292   2.206
 1098SOL    HW1 3886   0.817   4.215   2.149
 1098SOL    HW2 3887   0.734   4.338   2.180
 1099SOL     OW 3888   1.645   4.323   3.056
 1099SOL    HW1 3889   1.630   4.263   3.129
 1099SOL    HW2 3890   1.732   4.301   3.023
 1100SOL     OW 3891   0.283   5.266   0.052
 1100SOL    HW1 3892   0.230   5.335   0.094
 1100SOL    HW2 3893   0.242   5.184   0.079
 1101SOL     OW 3894   0.686   4.181   3.129
 1101SOL    HW1 3895   0.639   4.105   3.095
 1101SOL    HW2 3896   0.691   4.241   3.054
 1102SOL     OW 3897   0.472   4.220   2.051
 1102SOL    HW1 3898   0.527   4.296   2.066
 1102SOL    HW2 3899   0.383   4.255   2.050
 1103SOL     OW 3900   0.155   4.864   3.328
 1103SOL    HW1 3901   0.163   4.806   3.404
 1103SOL    HW2 3902   0.169   4.807   3.253
 1104SOL     OW 3903   1.336   4.778   3.093
 1104SOL    HW1 3904   1.363   4.718   3.024
 1104SOL    HW2 3905   1.257   4.821   3.058
 1105SOL     OW 3906   1.305   4.578   2.171
 1105SOL    HW1 3907   1.224   4.550   2.214
 1105SOL    HW2 3908   1.288   4.567   2.078
 1106SOL     OW 3909   1.755   5.443   3.021
 1106SOL    HW1 3910   1.792   5.486   2.945
 1106SOL    HW2 3911   1.728   5.356   2.990
 1107SOL     OW 3912   1.250   5.442   2.989
 1107SOL    HW1 3913   1.330   5.462   2.941
 1107SOL    HW2 3914   1.251   5.346   2.999
 1108SOL     OW 3915   0.081   4.979   2.879
 1108SOL    HW1 3916   0.071   4.991   2.974
 1108SOL    HW2 3917  -0.002   4.939   2.851
 1109SOL     OW 3918   1.719   3.861   2.379
 1109SOL    HW1 3919   1.793   3.847   2.321
 1109SOL    HW2 3920   1.702   3.775   2.418
 1110SOL     OW 3921   1.388   5.295   2.341
 1110SOL    HW1 3922   1.458   5.308   2.278
 1110SOL    HW2 3923   1.353   5.382   2.357
 1111SOL     OW 3924   1.277   4.646   2.533
 1111SOL    HW1 3925   1.348   4.582   2.535
 1111SOL    HW2 3926   1.312   4.719   2.481
 1112SOL     OW 3927   0.826   4.995   3.290
 1112SOL    HW1 3928   0.812   5.026   3.380
 1112SOL    HW2 3929   0.745   5.017   3.244
 1113SOL     OW 3930   0.684   5.328   2.012
 1113SOL    HW1 3931   0.671   5.336   1.918
 1113SOL    HW2 3932   0.632   5.251   2.037
 1114SOL     OW 3933   1.840   3.897   2.830
 1114SOL    HW1 3934   1.870   3.813   2.795
 1114SOL    HW2 3935   1.752   3.907   2.793
 1115SOL     OW 3936   0.268   4.045   2.583
 1115SOL    HW1 3937   0.186   4.084   2.553
 1115SOL    HW2 3938   0.256   4.033   2.677
 1116SOL     OW 3939   1.198   5.330   1.891
 1116SOL    HW1 3940   1.195   5.239   1.923
 1116SOL    HW2 3941   1.131   5.333   1.822
 1117SOL     OW 3942   0.822   4.729   3.231
 1117SOL    HW1 3943   0.864   4.729   3.145
 1117SOL    HW2 3944   0.829   4.820   3.261
 1118SOL     OW 3945   0.916   4.634   2.151
 1118SOL    HW1 3946   0.978   4.666   2.086
 1118SOL    HW2 3947   0.959   4.559   2.192
 1119SOL     OW 3948   0.373   5.021   3.368
 1119SOL    HW1 3949   0.362   5.099   3.313
 1119SOL    HW2 3950   0.298   4.966   3.346
 1120SOL     OW 3951   1.612   5.008   3.147
 1120SOL    HW1 3952   1.671   5.005   3.223
 1120SOL    HW2 3953   1.552   5.081   3.166
 1121SOL     OW 3954   1.042   4.825   2.563
 1121SOL    HW1 3955   0.974   4.774   2.606
 1121SOL    HW2 3956   1.100   4.759   2.525
 1122SOL     OW 3957   1.017   3.963   2.828
 1122SOL    HW1 3958   1.009   3.917   2.745
 1122SOL    HW2 3959   1.012   3.893   2.894
 1123SOL     OW 3960   0.589   5.204   2.349
 1123SOL    HW1 3961   0.633   5.163   2.274
 1123SOL    HW2 3962   0.557   5.287   2.314
 1124SOL     OW 3963   1.710   4.111   3.241
 1124SOL    HW1 3964   1.781   4.174   3.248
 1124SOL    HW2 3965   1.745   4.041   3.186
 1125SOL     OW 3966   0.254   5.075   2.145
 1125SOL    HW1 3967   0.160   5.071   2.129
 1125SOL    HW2 3968   0.262   5.111   2.234
 1126SOL     OW 3969   0.111   4.721   0.025
 1126SOL    HW1 3970   0.035   4.715   0.083
 1126SOL    HW2 3971   0.186   4.716   0.084
 1127SOL     OW 3972   0.670   3.917   3.361
 1127SOL    HW1 3973   0.753   3.906   3.314
 1127SOL    HW2 3974   0.695   3.947   3.448
 1128SOL     OW 3975   0.073   4.066   1.895
 1128SOL    HW1 3976  -0.015   4.044   1.864
 1128SOL    HW2 3977   0.100   4.140   1.840
 1129SOL     OW 3978   1.433   4.575   3.263
 1129SOL    HW1 3979   1.387   4.637   3.207
 1129SOL    HW2 3980   1.525   4.587   3.240
 1130SOL     OW 3981   0.065   3.884   2.178
 1130SOL    HW1 3982   0.057   3.964   2.127
 1130SOL    HW2 3983   0.151   3.850   2.155
 1131SOL     OW 3984   1.182   5.066   1.979
 1131SOL    HW1 3985   1.090   5.040   1.985
 1131SOL    HW2 3986   1.212   5.066   2.070
 1132SOL     OW 3987   0.615   4.560   3.292
 1132SOL    HW1 3988   0.671   4.637   3.278
 1132SOL    HW2 3989   0.676   4.487   3.300
 1133SOL     OW 3990   0.721   4.293   0.018
 1133SOL    HW1 3991   0.731   4.352   0.093
 1133SOL    HW2 3992   0.770   4.214   0.043
 1134SOL     OW 3993   0.393   5.463   3.429
 1134SOL    HW1 3994   0.305   5.500   3.417
 1134SOL    HW2 3995   0.378   5.373   3.458
 1135SOL     OW 3996   1.674   4.607   3.118
 1135SOL    HW1 3997   1.658   4.522   3.077
 1135SOL    HW2 3998   1.669   4.670   3.046
 1136SOL     OW 3999   1.222   4.046   2.316
 1136SOL    HW1 4000   1.286   3.975   2.307
 1136SOL    HW2 4001   1.249   4.092   2.396
 1137SOL     OW 4002   0.594   4.467   2.522
 1137SOL    HW1 4003   0.635   4.552   2.504
 1137SOL    HW2 4004   0.517   4.465   2.465
 1138SOL     OW 4005   1.744   4.658   3.376
 1138SOL    HW1 4006   1.750   4.752   3.389
 1138SOL    HW2 4007   1.726   4.648   3.282
 1139SOL     OW 4008   0.858   5.097   1.884
 1139SOL    HW1 4009   0.820   5.117   1.969
 1139SOL    HW2 4010   0.891   5.181   1.852
 1140SOL     OW 4011   0.862   4.685   2.720
 1140SOL    HW1 4012   0.914   4.617   2.765
 1140SOL    HW2 4013   0.833   4.743   2.790
 1141SOL     OW 4014   1.080   4.710   1.950
 1141SOL    HW1 4015   1.061   4.760   1.870
 1141SOL    HW2 4016   1.158   4.659   1.928
 1142SOL     OW 4017   1.860   5.296   2.709
 1142SOL    HW1 4018   1.785   5.280   2.653
 1142SOL    HW2 4019   1.858   5.226   2.774
 1143SOL     OW 4020   0.082   4.964   2.518
 1143SOL    HW1 4021   0.079   4.917   2.601
 1143SOL    HW2 4022   0.154   4.923   2.469
 1144SOL     OW 4023   0.647   5.123   3.463
 1144SOL    HW1 4024   0.591   5.063   3.513
 1144SOL    HW2 4025   0.661   5.197   3.521
 1145SOL     OW 4026   1.817   3.912   3.098
 1145SOL    HW1 4027   1.824   3.819   3.121
 1145SOL    HW2 4028   1.827   3.914   3.003
 1146SOL     OW 4029   0.429   4.154   2.383
 1146SOL    HW1 4030   0.456   4.081   2.328
 1146SOL    HW2 4031   0.387   4.113   2.458
 1147SOL     OW 4032   1.705   5.197   2.956
 1147SOL    HW1 4033   1.616   5.173   2.929
 1147SOL    HW2 4034   1.721   5.143   3.034
 1148SOL     OW 4035   0.322   4.273   3.149
 1148SOL    HW1 4036   0.373   4.217   3.208
 1148SOL    HW2 4037   0.350   4.247   3.061
 1149SOL     OW 4038   0.827   5.283   2.548
 1149SOL    HW1 4039   0.825   5.340   2.472
 1149SOL    HW2 4040   0.740   5.243   2.551
 1150SOL     OW 4041   1.430   3.943   2.979
 1150SOL    HW1 4042   1.469   3.873   3.030
 1150SOL    HW2 4043   1.379   3.994   3.042
 1151SOL     OW 4044   1.004   3.750   3.013
 1151SOL    HW1 4045   0.949   3.680   2.978
 1151SOL    HW2 4046   1.093   3.714   3.013
 1152SOL     OW 4047   0.773   5.054   2.165
 1152SOL    HW1 4048   0.732   4.968   2.178
 1152SOL    HW2 4049   0.855   5.049   2.213
 1153SOL     OW 4050   0.619   5.294   3.144
 1153SOL    HW1 4051   0.623   5.369   3.203
 1153SOL    HW2 4052   0.707   5.285   3.109
 1154SOL     OW 4053   1.353   3.776   2.027
 1154SOL    HW1 4054   1.377   3.727   1.948
 1154SOL    HW2 4055   1.266   3.742   2.050
 1155SOL     OW 4056   1.299   4.181   2.549
 1155SOL    HW1 4057   1.243   4.258   2.558
 1155SOL    HW2 4058   1.302   4.143   2.636
 1156SOL     OW 4059   1.590   3.936   2.741
 1156SOL    HW1 4060   1.516   3.948   2.801
 1156SOL    HW2 4061   1.590   4.016   2.687
 1157SOL     OW 4062   0.042   4.799   2.161
 1157SOL    HW1 4063   0.135   4.780   2.154
 1157SOL    HW2 4064   0.002   4.717   2.189
 1158SOL     OW 4065   2.093   0.614   0.130
 1158SOL    HW1 4066   2.001   0.625   0.152
 1158SOL    HW2 4067   2.094   0.597   0.036
 1159SOL     OW 4068   2.084   0.277   0.990
 1159SOL    HW1 4069   2.117   0.255   1.077
 1159SOL    HW2 4070   1.997   0.238   0.987
 1160SOL     OW 4071   1.872   0.380   0.641
 1160SOL    HW1 4072   1.788   0.404   0.681
 1160SOL    HW2 4073   1.851   0.302   0.588
 1161SOL     OW 4074   2.425   1.269   1.166
 1161SOL    HW1 4075   2.338   1.273   1.127
 1161SOL    HW2 4076   2.439   1.357   1.203
 1162SOL     OW 4077   3.418   1.511   0.698
 1162SOL    HW1 4078   3.371   1.497   0.780
 1162SOL    HW2 4079   3.349   1.521   0.632
 1163SOL     OW 4080   2.992   0.701   0.710
 1163SOL    HW1 4081   3.045   0.779   0.693
 1163SOL    HW2 4082   2.943   0.721   0.790
 1164SOL     OW 4083   3.630   0.604   0.227
 1164SOL    HW1 4084   3.592   0.604   0.140
 1164SOL    HW2 4085   3.588   0.531   0.272
 1165SOL     OW 4086   2.624   1.142   1.027
 1165SOL    HW1 4087   2.552   1.172   1.083
 1165SOL    HW2 4088   2.659   1.222   0.988
 1166SOL     OW 4089   2.716   0.791   1.821
 1166SOL    HW1 4090   2.710   0.864   1.882
 1166SOL    HW2 4091   2.740   0.832   1.738
 1167SOL     OW 4092   2.548   1.012   0.655
 1167SOL    HW1 4093   2.611   0.994   0.725
 1167SOL    HW2 4094   2.478   1.061   0.699
 1168SOL     OW 4095   2.560   1.155   1.806
 1168SOL    HW1 4096   2.611   1.234   1.824
 1168SOL    HW2 4097   2.477   1.188   1.772
 1169SOL     OW 4098   2.195   1.435   1.068
 1169SOL    HW1 4099   2.124   1.400   1.016
 1169SOL    HW2 4100   2.249   1.484   1.005
 1170SOL     OW 4101   2.313   0.400   1.496
 1170SOL    HW1 4102   2.385   0.337   1.500
 1170SOL    HW2 4103   2.234   0.348   1.504
 1171SOL     OW 4104   3.474   0.451   0.735
 1171SOL    HW1 4105   3.397   0.485   0.689
 1171SOL    HW2 4106   3.504   0.524   0.789
 1172SOL     OW 4107   2.085   1.712   0.478
 1172SOL    HW1 4108   2.115   1.788   0.529
 1172SOL    HW2 4109   2.145   1.708   0.403
 1173SOL     OW 4110   2.992   1.342   1.693
 1173SOL    HW1 4111   3.034   1.333   1.779
 1173SOL    HW2 4112   2.944   1.260   1.682
 1174SOL     OW 4113   2.090   1.437   0.535
 1174SOL    HW1 4114   2.071   1.531   0.542
 1174SOL    HW2 4115   2.024   1.395   0.589
 1175SOL     OW 4116   2.109   1.090   0.887
 1175SOL    HW1 4117   2.112   1.007   0.935
 1175SOL    HW2 4118   2.052   1.146   0.941
 1176SOL     OW 4119   2.487   1.777   1.471
 1176SOL    HW1 4120   2.394   1.770   1.491
 1176SOL    HW2 4121   2.505   1.871   1.474
 1177SOL     OW 4122   2.458   0.970   0.135
 1177SOL    HW1 4123   2.479   1.035   0.068
 1177SOL    HW2 4124   2.511   0.995   0.211
 1178SOL     OW 4125   3.466   0.118   1.472
 1178SOL    HW1 4126   3.439   0.189   1.413
 1178SOL    HW2 4127   3.450   0.153   1.560
 1179SOL     OW 4128   1.978   0.647   0.561
 1179SOL    HW1 4129   1.946   0.559   0.581
 1179SOL    HW2 4130   1.971   0.695   0.643
 1180SOL     OW 4131   3.701   1.768   0.350
 1180SOL    HW1 4132   3.756   1.738   0.423
 1180SOL    HW2 4133   3.735   1.855   0.329
 1181SOL     OW 4134   1.889   1.610   0.140
 1181SOL    HW1 4135   1.864   1.518   0.153
 1181SOL    HW2 4136   1.856   1.655   0.218
 1182SOL     OW 4137   3.553   0.920   0.629
 1182SOL    HW1 4138   3.642   0.887   0.616
 1182SOL    HW2 4139   3.535   0.972   0.551
 1183SOL     OW 4140   3.507   1.106   0.434
 1183SOL    HW1 4141   3.587   1.122   0.383
 1183SOL    HW2 4142   3.513   1.167   0.508
 1184SOL     OW 4143   1.981   0.739   1.590
 1184SOL    HW1 4144   2.070   0.747   1.623
 1184SOL    HW2 4145   1.948   0.829   1.587
 1185SOL     OW 4146   2.470   1.376   0.730
 1185SOL    HW1 4147   2.426   1.291   0.737
 1185SOL    HW2 4148   2.453   1.405   0.641
 1186SOL     OW 4149   3.131   1.163   1.454
 1186SOL    HW1 4150   3.188   1.160   1.378
 1186SOL    HW2 4151   3.181   1.210   1.520
 1187SOL     OW 4152   2.673   0.003   0.494
 1187SOL    HW1 4153   2.711   0.091   0.488
 1187SOL    HW2 4154   2.579   0.017   0.499
 1188SOL     OW 4155   2.057   0.974   1.264
 1188SOL    HW1 4156   2.140   0.928   1.250
 1188SOL    HW2 4157   1.990   0.910   1.237
 1189SOL     OW 4158   3.388   0.996   0.195
 1189SOL    HW1 4159   3.324   0.929   0.219
 1189SOL    HW2 4160   3.429   1.021   0.277
 1190SOL     OW 4161   3.043   1.796   1.615
 1190SOL    HW1 4162   3.075   1.854   1.545
 1190SOL    HW2 4163   3.058   1.708   1.582
 1191SOL     OW 4164   2.191   0.255   1.805
 1191SOL    HW1 4165   2.246   0.332   1.815
 1191SOL    HW2 4166   2.103   0.284   1.831
 1192SOL     OW 4167   3.311   1.423   0.923
 1192SOL    HW1 4168   3.283   1.433   1.014
 1192SOL    HW2 4169   3.310   1.329   0.907
 1193SOL     OW 4170   3.526   1.724   0.576
 1193SOL    HW1 4171   3.495   1.697   0.490
 1193SOL    HW2 4172   3.502   1.652   0.634
 1194SOL     OW 4173   2.459   0.726   0.261
 1194SOL    HW1 4174   2.471   0.804   0.207
 1194SOL    HW2 4175   2.393   0.752   0.326
 1195SOL     OW 4176   3.145   0.342   0.932
 1195SOL    HW1 4177   3.056   0.307   0.938
 1195SOL    HW2 4178   3.194   0.293   0.999
 1196SOL     OW 4179   3.441   1.666   0.309
 1196SOL    HW1 4180   3.528   1.706   0.306
 1196SOL    HW2 4181   3.423   1.643   0.218
 1197SOL     OW 4182   2.662   0.611   1.457
 1197SOL    HW1 4183   2.628   0.595   1.545
 1197SOL    HW2 4184   2.613   0.550   1.402
 1198SOL     OW 4185   3.256   0.472   1.676
 1198SOL    HW1 4186   3.249   0.515   1.761
 1198SOL    HW2 4187   3.325   0.407   1.688
 1199SOL     OW 4188   2.824   0.888   1.578
 1199SOL    HW1 4189   2.877   0.816   1.545
 1199SOL    HW2 4190   2.779   0.924   1.501
 1200SOL     OW 4191   2.855   0.412   1.241
 1200SOL    HW1 4192   2.776   0.439   1.288
 1200SOL    HW2 4193   2.822   0.362   1.166
 1201SOL     OW 4194   2.910   0.699   0.428
 1201SOL    HW1 4195   2.923   0.694   0.523
 1201SOL    HW2 4196   2.827   0.653   0.413
 1202SOL     OW 4197   1.948   0.818   0.775
 1202SOL    HW1 4198   2.033   0.807   0.817
 1202SOL    HW2 4199   1.912   0.898   0.813
 1203SOL     OW 4200   1.989   1.823   1.573
 1203SOL    HW1 4201   1.983   1.812   1.668
 1203SOL    HW2 4202   1.903   1.854   1.547
 1204SOL     OW 4203   2.732   0.354   0.192
 1204SOL    HW1 4204   2.798   0.401   0.141
 1204SOL    HW2 4205   2.741   0.263   0.165
 1205SOL     OW 4206   3.576   0.581   1.830
 1205SOL    HW1 4207   3.546   0.664   1.791
 1205SOL    HW2 4208   3.587   0.522   1.755
 1206SOL     OW 4209   3.232   1.143   0.543
 1206SOL    HW1 4210   3.309   1.124   0.490
 1206SOL    HW2 4211   3.182   1.206   0.491
 1207SOL     OW 4212   2.407   0.196   0.884
 1207SOL    HW1 4213   2.414   0.203   0.979
 1207SOL    HW2 4214   2.416   0.286   0.852
 1208SOL     OW 4215   2.872   1.449   0.476
 1208SOL    HW1 4216   2.829   1.520   0.429
 1208SOL    HW2 4217   2.865   1.474   0.568
 1209SOL     OW 4218   2.216   1.803   0.855
 1209SOL    HW1 4219   2.262   1.720   0.862
 1209SOL    HW2 4220   2.284   1.869   0.857
 1210SOL     OW 4221   3.658   1.059   0.873
 1210SOL    HW1 4222   3.600   1.052   0.797
 1210SOL    HW2 4223   3.599   1.084   0.945
 1211SOL     OW 4224   2.177   0.951   0.224
 1211SOL    HW1 4225   2.266   0.972   0.197
 1211SOL    HW2 4226   2.168   0.857   0.206
 1212SOL     OW 4227   3.331   0.732   0.726
 1212SOL    HW1 4228   3.319   0.684   0.808
 1212SOL    HW2 4229   3.404   0.792   0.744
 1213SOL     OW 4230   2.324   1.262   1.736
 1213SOL    HW1 4231   2.290   1.268   1.646
 1213SOL    HW2 4232   2.246   1.258   1.791
 1214SOL     OW 4233   2.966   1.784   0.234
 1214SOL    HW1 4234   2.913   1.728   0.291
 1214SOL    HW2 4235   2.998   1.725   0.165
 1215SOL     OW 4236   2.067   0.307   1.496
 1215SOL    HW1 4237   1.981   0.348   1.488
 1215SOL    HW2 4238   2.053   0.233   1.555
 1216SOL     OW 4239   3.490   1.378   0.096
 1216SOL    HW1 4240   3.452   1.463   0.073
 1216SOL    HW2 4241   3.425   1.314   0.067
 1217SOL     OW 4242   2.329   1.739   0.324
 1217SOL    HW1 4243   2.363   1.792   0.396
 1217SOL    HW2 4244   2.403   1.727   0.265
 1218SOL     OW 4245   3.260   0.114   0.428
 1218SOL    HW1 4246   3.246   0.084   0.338
 1218SOL    HW2 4247   3.355   0.121   0.436
 1219SOL     OW 4248   2.110   1.787   1.236
 1219SOL    HW1 4249   2.163   1.725   1.286
 1219SOL    HW2 4250   2.102   1.746   1.149
 1220SOL     OW 4251   2.803   1.699   0.895
 1220SOL    HW1 4252   2.872   1.638   0.922
 1220SOL    HW2 4253   2.753   1.651   0.829
 1221SOL     OW 4254   2.247   0.697   0.478
 1221SOL    HW1 4255   2.279   0.607   0.482
 1221SOL    HW2 4256   2.155   0.691   0.503
 1222SOL     OW 4257   3.403   0.228   1.724
 1222SOL    HW1 4258   3.408   0.250   1.818
 1222SOL    HW2 4259   3.339   0.157   1.719
 1223SOL     OW 4260   2.475   0.137   0.105
 1223SOL    HW1 4261   2.560   0.098   0.122
 1223SOL    HW2 4262   2.447   0.099   0.022
 1224SOL     OW 4263   2.636   0.270   1.750
 1224SOL    HW1 4264   2.704   0.209   1.777
 1224SOL    HW2 4265   2.575   0.274   1.824
 1225SOL     OW 4266   3.208   0.589   1.432
 1225SOL    HW1 4267   3.236   0.554   1.517
 1225SOL    HW2 4268   3.239   0.680   1.432
 1226SOL     OW 4269   2.659   1.398   0.922
 1226SOL    HW1 4270   2.749   1.401   0.888
 1226SOL    HW2 4271   2.604   1.394   0.844
 1227SOL     OW 4272   2.787   0.508   0.903
 1227SOL    HW1 4273   2.763   0.496   0.811
 1227SOL    HW2 4274   2.825   0.423   0.928
 1228SOL     OW 4275   2.409   0.060   0.509
 1228SOL    HW1 4276   2.326   0.060   0.557
 1228SOL    HW2 4277   2.403   0.138   0.454
 1229SOL     OW 4278   3.287   1.196   0.033
 1229SOL    HW1 4279   3.325   1.124   0.084
 1229SOL    HW2 4280   3.203   1.213   0.075
 1230SOL     OW 4281   2.159   0.054   0.193
 1230SOL    HW1 4282   2.214   0.122   0.153
 1230SOL    HW2 4283   2.220  -0.016   0.216
 1231SOL     OW 4284   2.798   0.241   0.471
 1231SOL    HW1 4285   2.762   0.283   0.393
 1231SOL    HW2 4286   2.892   0.252   0.463
 1232SOL     OW 4287   2.942   0.678   1.461
 1232SOL    HW1 4288   2.867   0.619   1.467
 1232SOL    HW2 4289   3.017   0.621   1.448
 1233SOL     OW 4290   3.087   1.572   0.794
 1233SOL    HW1 4291   3.109   1.640   0.731
 1233SOL    HW2 4292   3.160   1.574   0.857
 1234SOL     OW 4293   2.325   1.146   0.741
 1234SOL    HW1 4294   2.252   1.128   0.800
 1234SOL    HW2 4295   2.291   1.127   0.654
 1235SOL     OW 4296   3.134   1.796   0.597
 1235SOL    HW1 4297   3.175   1.861   0.539
 1235SOL    HW2 4298   3.075   1.847   0.653
 1236SOL     OW 4299   2.883   0.544   0.034
 1236SOL    HW1 4300   2.863   0.623  -0.016
 1236SOL    HW2 4301   2.958   0.567   0.088
 1237SOL     OW 4302   1.935   0.559   1.388
 1237SOL    HW1 4303   2.025   0.554   1.358
 1237SOL    HW2 4304   1.935   0.628   1.454
 1238SOL     OW 4305   2.427   0.228   1.156
 1238SOL    HW1 4306   2.461   0.145   1.190
 1238SOL    HW2 4307   2.337   0.232   1.188
 1239SOL     OW 4308   2.733   0.458   0.641
 1239SOL    HW1 4309   2.689   0.516   0.578
 1239SOL    HW2 4310   2.749   0.378   0.592
 1240SOL     OW 4311   2.872   0.047   0.762
 1240SOL    HW1 4312   2.812   0.047   0.688
 1240SOL    HW2 4313   2.854  -0.035   0.808
 1241SOL     OW 4314   3.298   1.164   0.860
 1241SOL    HW1 4315   3.234   1.093   0.856
 1241SOL    HW2 4316   3.314   1.187   0.768
 1242SOL     OW 4317   3.334   0.595   0.986
 1242SOL    HW1 4318   3.291   0.510   0.995
 1242SOL    HW2 4319   3.396   0.599   1.059
 1243SOL     OW 4320   3.714   0.823   0.378
 1243SOL    HW1 4321   3.764   0.766   0.436
 1243SOL    HW2 4322   3.682   0.766   0.309
 1244SOL     OW 4323   2.356   1.393   0.159
 1244SOL    HW1 4324   2.285   1.370   0.220
 1244SOL    HW2 4325   2.311   1.417   0.078
 1245SOL     OW 4326   3.528   1.268   0.659
 1245SOL    HW1 4327   3.623   1.282   0.663
 1245SOL    HW2 4328   3.491   1.355   0.676
 1246SOL     OW 4329   3.245   0.572   0.071
 1246SOL    HW1 4330   3.196   0.552   0.150
 1246SOL    HW2 4331   3.333   0.538   0.088
 1247SOL     OW 4332   2.390   0.262   0.327
 1247SOL    HW1 4333   2.422   0.209   0.254
 1247SOL    HW2 4334   2.378   0.349   0.290
 1248SOL     OW 4335   3.617   1.224   1.586
 1248SOL    HW1 4336   3.707   1.194   1.572
 1248SOL    HW2 4337   3.627   1.317   1.609
 1249SOL     OW 4338   3.464   1.639   1.640
 1249SOL    HW1 4339   3.467   1.650   1.545
 1249SOL    HW2 4340   3.542   1.586   1.659
 1250SOL     OW 4341   2.775   0.096   1.404
 1250SOL    HW1 4342   2.798   0.074   1.314
 1250SOL    HW2 4343   2.855   0.137   1.439
 1251SOL     OW 4344   2.846   1.110   1.726
 1251SOL    HW1 4345   2.751   1.126   1.731
 1251SOL    HW2 4346   2.854   1.038   1.663
 1252SOL     OW 4347   2.569   1.058   0.373
 1252SOL    HW1 4348   2.558   1.049   0.467
 1252SOL    HW2 4349   2.647   1.005   0.353
 1253SOL     OW 4350   2.275   0.812   1.250
 1253SOL    HW1 4351   2.348   0.823   1.312
 1253SOL    HW2 4352   2.239   0.726   1.272
 1254SOL     OW 4353   3.134   0.382   1.265
 1254SOL    HW1 4354   3.160   0.458   1.318
 1254SOL    HW2 4355   3.046   0.403   1.235
 1255SOL     OW 4356   1.927   1.569   1.340
 1255SOL    HW1 4357   1.890   1.646   1.297
 1255SOL    HW2 4358   2.021   1.585   1.342
 1256SOL     OW 4359   2.220   1.103   0.496
 1256SOL    HW1 4360   2.222   1.178   0.437
 1256SOL    HW2 4361   2.227   1.027   0.439
 1257SOL     OW 4362   2.422   0.539   0.863
 1257SOL    HW1 4363   2.440   0.598   0.791
 1257SOL    HW2 4364   2.477   0.570   0.935
 1258SOL     OW 4365   3.110   1.346   0.391
 1258SOL    HW1 4366   3.162   1.421   0.423
 1258SOL    HW2 4367   3.022   1.363   0.424
 1259SOL     OW 4368   3.448   0.633   0.474
 1259SOL    HW1 4369   3.408   0.691   0.538
 1259SOL    HW2 4370   3.489   0.692   0.410
 1260SOL     OW 4371   2.211   1.520   1.324
 1260SOL    HW1 4372   2.203   1.476   1.239
 1260SOL    HW2 4373   2.305   1.534   1.335
 1261SOL     OW 4374   2.271   0.747   1.600
 1261SOL    HW1 4375   2.333   0.794   1.544
 1261SOL    HW2 4376   2.313   0.663   1.617
 1262SOL     OW 4377   3.452   0.772   1.671
 1262SOL    HW1 4378   3.367   0.816   1.668
 1262SOL    HW2 4379   3.506   0.820   1.609
 1263SOL     OW 4380   2.866   0.120   1.771
 1263SOL    HW1 4381   2.898   0.192   1.716
 1263SOL    HW2 4382   2.898   0.041   1.727
 1264SOL     OW 4383   2.359   0.046   1.747
 1264SOL    HW1 4384   2.320  -0.007   1.677
 1264SOL    HW2 4385   2.297   0.117   1.761
 1265SOL     OW 4386   2.440   0.871   1.030
 1265SOL    HW1 4387   2.475   0.960   1.025
 1265SOL    HW2 4388   2.383   0.872   1.106
 1266SOL     OW 4389   3.226   0.860   1.046
 1266SOL    HW1 4390   3.150   0.862   0.988
 1266SOL    HW2 4391   3.254   0.768   1.044
 1267SOL     OW 4392   3.074   0.527   0.274
 1267SOL    HW1 4393   3.078   0.449   0.329
 1267SOL    HW2 4394   3.034   0.594   0.331
 1268SOL     OW 4395   2.170   0.209   1.242
 1268SOL    HW1 4396   2.136   0.247   1.323
 1268SOL    HW2 4397   2.137   0.119   1.241
 1269SOL     OW 4398   1.907   1.308   1.278
 1269SOL    HW1 4399   1.945   1.261   1.352
 1269SOL    HW2 4400   1.917   1.401   1.300
 1270SOL     OW 4401   2.591   0.634   1.063
 1270SOL    HW1 4402   2.657   0.613   0.997
 1270SOL    HW2 4403   2.564   0.723   1.042
 1271SOL     OW 4404   3.595   0.951   1.852
 1271SOL    HW1 4405   3.543   0.919   1.779
 1271SOL    HW2 4406   3.532   0.969   1.921
 1272SOL     OW 4407   2.160   0.062   0.624
 1272SOL    HW1 4408   2.154   0.152   0.654
 1272SOL    HW2 4409   2.167   0.010   0.704
 1273SOL     OW 4410   3.472   0.369   0.370
 1273SOL    HW1 4411   3.497   0.305   0.437
 1273SOL    HW2 4412   3.446   0.447   0.420
 1274SOL     OW 4413   2.887   0.762   0.965
 1274SOL    HW1 4414   2.894   0.779   1.059
 1274SOL    HW2 4415   2.859   0.671   0.959
 1275SOL     OW 4416   2.847   1.566   1.711
 1275SOL    HW1 4417   2.823   1.609   1.628
 1275SOL    HW2 4418   2.888   1.484   1.684
 1276SOL     OW 4419   3.720   1.515   1.604
 1276SOL    HW1 4420   3.738   1.547   1.516
 1276SOL    HW2 4421   3.797   1.538   1.655
 1277SOL     OW 4422   2.213   0.913   1.806
 1277SOL    HW1 4423   2.294   0.935   1.850
 1277SOL    HW2 4424   2.239   0.854   1.735
 1278SOL     OW 4425   3.406   0.271   0.123
 1278SOL    HW1 4426   3.337   0.208   0.145
 1278SOL    HW2 4427   3.427   0.313   0.207
 1279SOL     OW 4428   3.165   0.831   0.035
 1279SOL    HW1 4429   3.197   0.741   0.042
 1279SOL    HW2 4430   3.181   0.855  -0.056
 1280SOL     OW 4431   2.924   1.340   0.845
 1280SOL    HW1 4432   2.933   1.260   0.791
 1280SOL    HW2 4433   2.993   1.398   0.812
 1281SOL     OW 4434   2.176   0.812   0.950
 1281SOL    HW1 4435   2.269   0.836   0.948
 1281SOL    HW2 4436   2.174   0.725   0.990
 1282SOL     OW 4437   2.197   0.516   1.007
 1282SOL    HW1 4438   2.159   0.430   0.990
 1282SOL    HW2 4439   2.273   0.521   0.949
 1283SOL     OW 4440   2.998   0.382   1.677
 1283SOL    HW1 4441   2.956   0.437   1.742
 1283SOL    HW2 4442   3.088   0.416   1.671
 1284SOL     OW 4443   3.016   0.207   1.473
 1284SOL    HW1 4444   3.015   0.270   1.545
 1284SOL    HW2 4445   3.052   0.256   1.399
 1285SOL     OW 4446   1.867   1.330   0.200
 1285SOL    HW1 4447   1.779   1.341   0.164
 1285SOL    HW2 4448   1.873   1.236   0.219
 1286SOL     OW 4449   1.951   1.795   0.931
 1286SOL    HW1 4450   1.918   1.714   0.894
 1286SOL    HW2 4451   2.042   1.801   0.900
 1287SOL     OW 4452   2.368   1.569   0.910
 1287SOL    HW1 4453   2.435   1.637   0.914
 1287SOL    HW2 4454   2.409   1.498   0.861
 1288SOL     OW 4455   2.859   0.795   1.231
 1288SOL    HW1 4456   2.902   0.768   1.312
 1288SOL    HW2 4457   2.768   0.766   1.242
 1289SOL     OW 4458   1.899   0.539   1.115
 1289SOL    HW1 4459   1.983   0.521   1.073
 1289SOL    HW2 4460   1.921   0.553   1.207
 1290SOL     OW 4461   2.052   0.516   1.723
 1290SOL    HW1 4462   2.107   0.482   1.653
 1290SOL    HW2 4463   1.999   0.584   1.682
 1291SOL     OW 4464   3.241   0.944   1.662
 1291SOL    HW1 4465   3.256   1.038   1.670
 1291SOL    HW2 4466   3.233   0.928   1.568
 1292SOL     OW 4467   2.677   0.571   0.344
 1292SOL    HW1 4468   2.680   0.492   0.289
 1292SOL    HW2 4469   2.593   0.612   0.322
 1293SOL     OW 4470   3.508   0.603   1.196
 1293SOL    HW1 4471   3.490   0.541   1.266
 1293SOL    HW2 4472   3.594   0.577   1.162
 1294SOL     OW 4473   2.112   1.556   1.736
 1294SOL    HW1 4474   2.086   1.616   1.806
 1294SOL    HW2 4475   2.107   1.469   1.775
 1295SOL     OW 4476   2.546   0.459   1.267
 1295SOL    HW1 4477   2.503   0.381   1.233
 1295SOL    HW2 4478   2.553   0.517   1.191
 1296SOL     OW 4479   2.789   1.683   1.480
 1296SOL    HW1 4480   2.767   1.659   1.390
 1296SOL    HW2 4481   2.821   1.773   1.473
 1297SOL     OW 4482   2.332   0.495   0.198
 1297SOL    HW1 4483   2.388   0.572   0.202
 1297SOL    HW2 4484   2.243   0.530   0.191
 1298SOL     OW 4485   2.014   1.138   1.468
 1298SOL    HW1 4486   2.030   1.082   1.544
 1298SOL    HW2 4487   2.030   1.082   1.392
 1299SOL     OW 4488   3.169   0.847   0.311
 1299SOL    HW1 4489   3.084   0.828   0.351
 1299SOL    HW2 4490   3.152   0.846   0.217
 1300SOL     OW 4491   1.946   1.262   1.018
 1300SOL    HW1 4492   1.934   1.268   1.112
 1300SOL    HW2 4493   1.869   1.215   0.987
 1301SOL     OW 4494   2.545   1.661   1.722
 1301SOL    HW1 4495   2.494   1.742   1.723
 1301SOL    HW2 4496   2.598   1.667   1.643
 1302SOL     OW 4497   2.773   0.096   0.126
 1302SOL    HW1 4498   2.825   0.075   0.048
 1302SOL    HW2 4499   2.808   0.039   0.194
 1303SOL     OW 4500   3.580   0.136   0.510
 1303SOL    HW1 4501   3.661   0.124   0.460
 1303SOL    HW2 4502   3.570   0.055   0.560
 1304SOL     OW 4503   3.251   1.569   0.479
 1304SOL    HW1 4504   3.312   1.595   0.410
 1304SOL    HW2 4505   3.209   1.650   0.506
 1305SOL     OW 4506   1.994   1.798   1.845
 1305SOL    HW1 4507   1.948   1.731   1.896
 1305SOL    HW2 4508   2.049   1.843   1.909
 1306SOL     OW 4509   3.140   0.922   0.671
 1306SOL    HW1 4510   3.211   0.858   0.671
 1306SOL    HW2 4511   3.173   0.995   0.619
 1307SOL     OW 4512   2.678   1.252   1.444
 1307SOL    HW1 4513   2.680   1.306   1.522
 1307SOL    HW2 4514   2.610   1.291   1.389
 1308SOL     OW 4515   2.536   1.612   0.161
 1308SOL    HW1 4516   2.532   1.632   0.067
 1308SOL    HW2 4517   2.486   1.532   0.171
 1309SOL     OW 4518   3.704   0.155   0.966
 1309SOL    HW1 4519   3.732   0.088   0.904
 1309SOL    HW2 4520   3.618   0.183   0.935
 1310SOL     OW 4521   2.130   0.320   0.720
 1310SOL    HW1 4522   2.047   0.360   0.692
 1310SOL    HW2 4523   2.121   0.310   0.814
 1311SOL     OW 4524   3.049   1.615   0.053
 1311SOL    HW1 4525   3.053   1.522   0.076
 1311SOL    HW2 4526   3.023   1.616  -0.039
 1312SOL     OW 4527   2.687   1.000   1.370
 1312SOL    HW1 4528   2.728   1.005   1.283
 1312SOL    HW2 4529   2.690   1.090   1.403
 1313SOL     OW 4530   2.778   0.910   0.289
 1313SOL    HW1 4531   2.840   0.945   0.225
 1313SOL    HW2 4532   2.823   0.836   0.329
 1314SOL     OW 4533   3.366   1.620   0.044
 1314SOL    HW1 4534   3.272   1.632   0.037
 1314SOL    HW2 4535   3.398   1.633  -0.046
 1315SOL     OW 4536   2.232   1.295   1.490
 1315SOL    HW1 4537   2.214   1.378   1.447
 1315SOL    HW2 4538   2.154   1.242   1.474
 1316SOL     OW 4539   2.905   1.101   0.700
 1316SOL    HW1 4540   2.836   1.051   0.745
 1316SOL    HW2 4541   2.962   1.034   0.662
 1317SOL     OW 4542   2.883   0.240   0.965
 1317SOL    HW1 4543   2.870   0.193   0.882
 1317SOL    HW2 4544   2.870   0.174   1.032
 1318SOL     OW 4545   2.459   1.489   0.486
 1318SOL    HW1 4546   2.495   1.436   0.415
 1318SOL    HW2 4547   2.403   1.553   0.441
 1319SOL     OW 4548   3.574   0.394   1.381
 1319SOL    HW1 4549   3.644   0.459   1.383
 1319SOL    HW2 4550   3.609   0.323   1.327
 1320SOL     OW 4551   2.122   1.350   0.288
 1320SOL    HW1 4552   2.030   1.345   0.261
 1320SOL    HW2 4553   2.120   1.388   0.376
 1321SOL     OW 4554   1.971   1.014   1.723
 1321SOL    HW1 4555   1.897   0.987   1.776
 1321SOL    HW2 4556   2.048   0.980   1.769
 1322SOL     OW 4557   2.530   0.201   1.492
 1322SOL    HW1 4558   2.614   0.179   1.452
 1322SOL    HW2 4559   2.551   0.215   1.585
 1323SOL     OW 4560   1.928   0.337   0.033
 1323SOL    HW1 4561   1.835   0.332   0.011
 1323SOL    HW2 4562   1.958   0.418  -0.008
 1324SOL     OW 4563   3.297   0.861   1.401
 1324SOL    HW1 4564   3.244   0.897   1.329
 1324SOL    HW2 4565   3.387   0.867   1.370
 1325SOL     OW 4566   1.927   0.160   0.316
 1325SOL    HW1 4567   1.921   0.242   0.268
 1325SOL    HW2 4568   2.014   0.126   0.294
 1326SOL     OW 4569   3.047   1.350   0.119
 1326SOL    HW1 4570   2.956   1.321   0.116
 1326SOL    HW2 4571   3.072   1.340   0.211
 1327SOL     OW 4572   2.477   0.836   1.430
 1327SOL    HW1 4573   2.532   0.913   1.418
 1327SOL    HW2 4574   2.539   0.763   1.438
 1328SOL     OW 4575   3.353   1.771   0.924
 1328SOL    HW1 4576   3.399   1.839   0.875
 1328SOL    HW2 4577   3.408   1.754   1.000
 1329SOL     OW 4578   2.577   0.565   1.709
 1329SOL    HW1 4579   2.606   0.629   1.774
 1329SOL    HW2 4580   2.628   0.487   1.728
 1330SOL     OW 4581   3.328   1.214   1.632
 1330SOL    HW1 4582   3.314   1.220   1.726
 1330SOL    HW2 4583   3.423   1.218   1.622
 1331SOL     OW 4584   2.242   1.739   1.558
 1331SOL    HW1 4585   2.154   1.776   1.555
 1331SOL    HW2 4586   2.231   1.655   1.602
 1332SOL     OW 4587   3.532   0.885   1.252
 1332SOL    HW1 4588   3.521   0.795   1.223
 1332SOL    HW2 4589   3.532   0.937   1.172
 1333SOL     OW 4590   3.083   0.321   0.454
 1333SOL    HW1 4591   3.148   0.251   0.447
 1333SOL    HW2 4592   3.108   0.369   0.534
 1334SOL     OW 4593   2.456   0.743   0.659
 1334SOL    HW1 4594   2.497   0.828   0.643
 1334SOL    HW2 4595   2.379   0.742   0.602
 1335SOL     OW 4596   3.636   0.348   1.643
 1335SOL    HW1 4597   3.612   0.369   1.553
 1335SOL    HW2 4598   3.560   0.301   1.678
 1336SOL     OW 4599   3.599   0.933   1.515
 1336SOL    HW1 4600   3.620   1.025   1.529
 1336SOL    HW2 4601   3.588   0.926   1.420
 1337SOL     OW 4602   2.769   1.377   0.041
 1337SOL    HW1 4603   2.696   1.378   0.102
 1337SOL    HW2 4604   2.761   1.458  -0.009
 1338SOL     OW 4605   2.520   1.791   0.907
 1338SOL    HW1 4606   2.494   1.882   0.920
 1338SOL    HW2 4607   2.611   1.788   0.936
 1339SOL     OW 4608   2.725   0.959   0.857
 1339SOL    HW1 4609   2.776   0.893   0.903
 1339SOL    HW2 4610   2.695   1.019   0.926
 1340SOL     OW 4611   2.959   1.002   0.100
 1340SOL    HW1 4612   2.909   1.015   0.019
 1340SOL    HW2 4613   3.027   0.939   0.077
 1341SOL     OW 4614   3.721   1.562   0.848
 1341SOL    HW1 4615   3.646   1.552   0.789
 1341SOL    HW2 4616   3.715   1.487   0.907
 1342SOL     OW 4617   2.085   1.308   1.852
 1342SOL    HW1 4618   2.017   1.244   1.829
 1342SOL    HW2 4619   2.075   1.321   1.946
 1343SOL     OW 4620   1.944   1.239   0.659
 1343SOL    HW1 4621   1.944   1.188   0.740
 1343SOL    HW2 4622   2.017   1.204   0.609
 1344SOL     OW 4623   2.531   1.402   1.617
 1344SOL    HW1 4624   2.459   1.354   1.658
 1344SOL    HW2 4625   2.533   1.486   1.662
 1345SOL     OW 4626   3.709   0.216   1.243
 1345SOL    HW1 4627   3.677   0.129   1.267
 1345SOL    HW2 4628   3.702   0.219   1.147
 1346SOL     OW 4629   2.290   0.431   0.521
 1346SOL    HW1 4630   2.319   0.359   0.465
 1346SOL    HW2 4631   2.250   0.388   0.597
 1347SOL     OW 4632   2.183   0.548   1.287
 1347SOL    HW1 4633   2.236   0.493   1.346
 1347SOL    HW2 4634   2.214   0.524   1.199
 1348SOL     OW 4635   2.682   1.577   0.683
 1348SOL    HW1 4636   2.691   1.606   0.592
 1348SOL    HW2 4637   2.600   1.528   0.685
 1349SOL     OW 4638   3.296   0.219   1.117
 1349SOL    HW1 4639   3.336   0.153   1.174
 1349SOL    HW2 4640   3.241   0.270   1.176
 1350SOL     OW 4641   2.850   0.037   1.146
 1350SOL    HW1 4642   2.808  -0.049   1.140
 1350SOL    HW2 4643   2.944   0.017   1.148
 1351SOL     OW 4644   2.630   1.331   0.305
 1351SOL    HW1 4645   2.595   1.243   0.317
 1351SOL    HW2 4646   2.716   1.328   0.345
 1352SOL     OW 4647   3.218   0.049   0.165
 1352SOL    HW1 4648   3.249   0.016   0.081
 1352SOL    HW2 4649   3.129   0.014   0.173
 1353SOL     OW 4650   3.162   0.457   0.687
 1353SOL    HW1 4651   3.105   0.534   0.695
 1353SOL    HW2 4652   3.163   0.418   0.774
 1354SOL     OW 4653   3.458   0.218   0.881
 1354SOL    HW1 4654   3.381   0.224   0.938
 1354SOL    HW2 4655   3.452   0.295   0.825
 1355SOL     OW 4656   1.902   1.075   0.302
 1355SOL    HW1 4657   1.997   1.069   0.296
 1355SOL    HW2 4658   1.874   0.989   0.333
 1356SOL     OW 4659   2.739   1.646   0.347
 1356SOL    HW1 4660   2.668   1.625   0.286
 1356SOL    HW2 4661   2.707   1.723   0.395
 1357SOL     OW 4662   2.093   0.626   1.980
 1357SOL    HW1 4663   2.002   0.625   2.011
 1357SOL    HW2 4664   2.088   0.594   1.890
 1358SOL     OW 4665   2.084   0.277   2.851
 1358SOL    HW1 4666   2.117   0.255   2.938
 1358SOL    HW2 4667   1.997   0.238   2.848
 1359SOL     OW 4668   1.872   0.379   2.503
 1359SOL    HW1 4669   1.788   0.404   2.543
 1359SOL    HW2 4670   1.851   0.302   2.450
 1360SOL     OW 4671   2.429   1.276   3.030
 1360SOL    HW1 4672   2.341   1.277   2.993
 1360SOL    HW2 4673   2.441   1.363   3.067
 1361SOL     OW 4674   3.416   1.509   2.565
 1361SOL    HW1 4675   3.367   1.498   2.646
 1361SOL    HW2 4676   3.348   1.520   2.497
 1362SOL     OW 4677   2.992   0.701   2.572
 1362SOL    HW1 4678   3.045   0.779   2.555
 1362SOL    HW2 4679   2.943   0.721   2.652
 1363SOL     OW 4680   3.622   0.608   2.095
 1363SOL    HW1 4681   3.606   0.597   2.001
 1363SOL    HW2 4682   3.589   0.528   2.135
 1364SOL     OW 4683   2.626   1.146   2.893
 1364SOL    HW1 4684   2.554   1.174   2.949
 1364SOL    HW2 4685   2.657   1.226   2.851
 1365SOL     OW 4686   2.549   1.013   2.517
 1365SOL    HW1 4687   2.611   0.994   2.588
 1365SOL    HW2 4688   2.478   1.061   2.560
 1366SOL     OW 4689   2.194   1.434   2.929
 1366SOL    HW1 4690   2.123   1.400   2.875
 1366SOL    HW2 4691   2.248   1.485   2.868
 1367SOL     OW 4692   3.328   1.499   3.201
 1367SOL    HW1 4693   3.358   1.588   3.220
 1367SOL    HW2 4694   3.290   1.469   3.284
 1368SOL     OW 4695   2.314   0.400   3.353
 1368SOL    HW1 4696   2.384   0.335   3.361
 1368SOL    HW2 4697   2.234   0.350   3.363
 1369SOL     OW 4698   3.474   0.451   2.597
 1369SOL    HW1 4699   3.397   0.485   2.551
 1369SOL    HW2 4700   3.504   0.524   2.651
 1370SOL     OW 4701   2.085   1.712   2.340
 1370SOL    HW1 4702   2.115   1.787   2.391
 1370SOL    HW2 4703   2.145   1.709   2.265
 1371SOL     OW 4704   2.090   1.437   2.395
 1371SOL    HW1 4705   2.072   1.530   2.404
 1371SOL    HW2 4706   2.025   1.394   2.451
 1372SOL     OW 4707   2.109   1.090   2.749
 1372SOL    HW1 4708   2.112   1.007   2.797
 1372SOL    HW2 4709   2.053   1.147   2.802
 1373SOL     OW 4710   2.482   1.787   3.299
 1373SOL    HW1 4711   2.396   1.773   3.340
 1373SOL    HW2 4712   2.503   1.878   3.318
 1374SOL     OW 4713   2.457   0.974   1.990
 1374SOL    HW1 4714   2.489   1.037   1.926
 1374SOL    HW2 4715   2.504   0.995   2.071
 1375SOL     OW 4716   3.461   0.119   3.341
 1375SOL    HW1 4717   3.445   0.189   3.277
 1375SOL    HW2 4718   3.448   0.160   3.426
 1376SOL     OW 4719   1.979   0.647   2.423
 1376SOL    HW1 4720   1.946   0.559   2.443
 1376SOL    HW2 4721   1.971   0.695   2.505
 1377SOL     OW 4722   3.696   1.748   2.219
 1377SOL    HW1 4723   3.755   1.729   2.292
 1377SOL    HW2 4724   3.731   1.827   2.179
 1378SOL     OW 4725   1.887   1.598   1.984
 1378SOL    HW1 4726   1.873   1.505   2.005
 1378SOL    HW2 4727   1.862   1.644   2.064
 1379SOL     OW 4728   3.552   0.919   2.490
 1379SOL    HW1 4729   3.641   0.888   2.480
 1379SOL    HW2 4730   3.536   0.972   2.412
 1380SOL     OW 4731   3.506   1.108   2.294
 1380SOL    HW1 4732   3.589   1.119   2.247
 1380SOL    HW2 4733   3.513   1.166   2.369
 1381SOL     OW 4734   1.980   0.736   3.450
 1381SOL    HW1 4735   2.070   0.747   3.481
 1381SOL    HW2 4736   1.945   0.825   3.445
 1382SOL     OW 4737   2.474   1.375   2.595
 1382SOL    HW1 4738   2.427   1.291   2.601
 1382SOL    HW2 4739   2.455   1.405   2.506
 1383SOL     OW 4740   3.160   1.236   3.297
 1383SOL    HW1 4741   3.189   1.170   3.235
 1383SOL    HW2 4742   3.212   1.219   3.376
 1384SOL     OW 4743   2.673   0.003   2.356
 1384SOL    HW1 4744   2.711   0.091   2.350
 1384SOL    HW2 4745   2.579   0.018   2.362
 1385SOL     OW 4746   2.057   0.974   3.124
 1385SOL    HW1 4747   2.140   0.927   3.112
 1385SOL    HW2 4748   1.990   0.910   3.100
 1386SOL     OW 4749   3.395   0.991   2.054
 1386SOL    HW1 4750   3.325   0.929   2.078
 1386SOL    HW2 4751   3.430   1.020   2.138
 1387SOL     OW 4752   3.326   1.419   2.816
 1387SOL    HW1 4753   3.261   1.429   2.885
 1387SOL    HW2 4754   3.315   1.330   2.785
 1388SOL     OW 4755   3.521   1.724   2.442
 1388SOL    HW1 4756   3.497   1.698   2.353
 1388SOL    HW2 4757   3.500   1.649   2.496
 1389SOL     OW 4758   2.457   0.725   2.126
 1389SOL    HW1 4759   2.474   0.801   2.070
 1389SOL    HW2 4760   2.390   0.755   2.188
 1390SOL     OW 4761   3.145   0.342   2.795
 1390SOL    HW1 4762   3.056   0.307   2.800
 1390SOL    HW2 4763   3.194   0.293   2.861
 1391SOL     OW 4764   3.440   1.663   2.170
 1391SOL    HW1 4765   3.528   1.702   2.170
 1391SOL    HW2 4766   3.421   1.645   2.078
 1392SOL     OW 4767   2.664   0.610   3.318
 1392SOL    HW1 4768   2.629   0.597   3.406
 1392SOL    HW2 4769   2.614   0.551   3.262
 1393SOL     OW 4770   2.830   0.895   3.432
 1393SOL    HW1 4771   2.876   0.818   3.397
 1393SOL    HW2 4772   2.775   0.925   3.360
 1394SOL     OW 4773   2.854   0.412   3.104
 1394SOL    HW1 4774   2.774   0.440   3.148
 1394SOL    HW2 4775   2.823   0.363   3.028
 1395SOL     OW 4776   2.909   0.699   2.290
 1395SOL    HW1 4777   2.923   0.694   2.385
 1395SOL    HW2 4778   2.827   0.653   2.275
 1396SOL     OW 4779   1.947   0.817   2.638
 1396SOL    HW1 4780   2.033   0.808   2.679
 1396SOL    HW2 4781   1.912   0.898   2.675
 1397SOL     OW 4782   1.992   1.828   3.439
 1397SOL    HW1 4783   1.976   1.805   3.530
 1397SOL    HW2 4784   1.906   1.849   3.403
 1398SOL     OW 4785   2.739   0.345   2.059
 1398SOL    HW1 4786   2.788   0.404   2.002
 1398SOL    HW2 4787   2.753   0.258   2.021
 1399SOL     OW 4788   3.231   1.143   2.405
 1399SOL    HW1 4789   3.310   1.125   2.353
 1399SOL    HW2 4790   3.182   1.206   2.353
 1400SOL     OW 4791   2.407   0.196   2.746
 1400SOL    HW1 4792   2.414   0.203   2.841
 1400SOL    HW2 4793   2.416   0.286   2.714
 1401SOL     OW 4794   2.872   1.449   2.338
 1401SOL    HW1 4795   2.829   1.519   2.289
 1401SOL    HW2 4796   2.865   1.475   2.430
 1402SOL     OW 4797   2.214   1.803   2.714
 1402SOL    HW1 4798   2.262   1.720   2.725
 1402SOL    HW2 4799   2.282   1.870   2.723
 1403SOL     OW 4800   3.659   1.063   2.729
 1403SOL    HW1 4801   3.597   1.051   2.658
 1403SOL    HW2 4802   3.604   1.069   2.808
 1404SOL     OW 4803   3.094   1.538   3.353
 1404SOL    HW1 4804   3.092   1.461   3.410
 1404SOL    HW2 4805   3.029   1.519   3.285
 1405SOL     OW 4806   2.183   0.951   2.105
 1405SOL    HW1 4807   2.266   0.974   2.063
 1405SOL    HW2 4808   2.157   0.869   2.062
 1406SOL     OW 4809   3.331   0.733   2.589
 1406SOL    HW1 4810   3.319   0.684   2.670
 1406SOL    HW2 4811   3.404   0.791   2.606
 1407SOL     OW 4812   2.979   1.775   2.096
 1407SOL    HW1 4813   2.912   1.726   2.143
 1407SOL    HW2 4814   2.998   1.723   2.018
 1408SOL     OW 4815   2.070   0.300   3.344
 1408SOL    HW1 4816   1.989   0.349   3.331
 1408SOL    HW2 4817   2.052   0.245   3.420
 1409SOL     OW 4818   3.493   1.377   1.947
 1409SOL    HW1 4819   3.454   1.463   1.933
 1409SOL    HW2 4820   3.422   1.316   1.929
 1410SOL     OW 4821   2.328   1.740   2.185
 1410SOL    HW1 4822   2.365   1.791   2.257
 1410SOL    HW2 4823   2.403   1.725   2.126
 1411SOL     OW 4824   3.260   0.113   2.290
 1411SOL    HW1 4825   3.246   0.084   2.200
 1411SOL    HW2 4826   3.355   0.122   2.298
 1412SOL     OW 4827   2.113   1.789   3.099
 1412SOL    HW1 4828   2.167   1.726   3.146
 1412SOL    HW2 4829   2.101   1.752   3.012
 1413SOL     OW 4830   2.801   1.698   2.765
 1413SOL    HW1 4831   2.878   1.643   2.782
 1413SOL    HW2 4832   2.754   1.652   2.696
 1414SOL     OW 4833   2.248   0.697   2.342
 1414SOL    HW1 4834   2.279   0.607   2.345
 1414SOL    HW2 4835   2.155   0.691   2.365
 1415SOL     OW 4836   2.487   0.145   1.964
 1415SOL    HW1 4837   2.552   0.081   1.994
 1415SOL    HW2 4838   2.447   0.104   1.888
 1416SOL     OW 4839   2.742   1.518   3.056
 1416SOL    HW1 4840   2.727   1.486   2.967
 1416SOL    HW2 4841   2.807   1.458   3.092
 1417SOL     OW 4842   3.205   0.588   3.301
 1417SOL    HW1 4843   3.245   0.560   3.384
 1417SOL    HW2 4844   3.239   0.676   3.287
 1418SOL     OW 4845   2.670   1.403   2.792
 1418SOL    HW1 4846   2.754   1.401   2.746
 1418SOL    HW2 4847   2.604   1.397   2.722
 1419SOL     OW 4848   2.787   0.507   2.765
 1419SOL    HW1 4849   2.763   0.497   2.673
 1419SOL    HW2 4850   2.825   0.423   2.790
 1420SOL     OW 4851   2.409   0.061   2.371
 1420SOL    HW1 4852   2.326   0.059   2.420
 1420SOL    HW2 4853   2.403   0.139   2.316
 1421SOL     OW 4854   3.292   1.194   1.900
 1421SOL    HW1 4855   3.323   1.121   1.954
 1421SOL    HW2 4856   3.206   1.215   1.936
 1422SOL     OW 4857   2.165   0.045   2.048
 1422SOL    HW1 4858   2.223   0.116   2.019
 1422SOL    HW2 4859   2.225  -0.022   2.080
 1423SOL     OW 4860   2.797   0.242   2.334
 1423SOL    HW1 4861   2.762   0.284   2.255
 1423SOL    HW2 4862   2.892   0.251   2.325
 1424SOL     OW 4863   2.941   0.678   3.323
 1424SOL    HW1 4864   2.868   0.616   3.321
 1424SOL    HW2 4865   3.019   0.624   3.308
 1425SOL     OW 4866   3.087   1.570   2.655
 1425SOL    HW1 4867   3.109   1.638   2.593
 1425SOL    HW2 4868   3.155   1.576   2.723
 1426SOL     OW 4869   2.325   1.146   2.603
 1426SOL    HW1 4870   2.252   1.128   2.662
 1426SOL    HW2 4871   2.291   1.127   2.516
 1427SOL     OW 4872   3.134   1.796   2.462
 1427SOL    HW1 4873   3.175   1.857   2.401
 1427SOL    HW2 4874   3.077   1.850   2.516
 1428SOL     OW 4875   2.893   0.549   1.877
 1428SOL    HW1 4876   2.851   0.631   1.852
 1428SOL    HW2 4877   2.952   0.572   1.948
 1429SOL     OW 4878   1.936   0.554   3.253
 1429SOL    HW1 4879   2.026   0.554   3.220
 1429SOL    HW2 4880   1.935   0.626   3.316
 1430SOL     OW 4881   2.427   0.228   3.019
 1430SOL    HW1 4882   2.460   0.144   3.052
 1430SOL    HW2 4883   2.337   0.232   3.050
 1431SOL     OW 4884   2.733   0.459   2.503
 1431SOL    HW1 4885   2.689   0.516   2.440
 1431SOL    HW2 4886   2.749   0.378   2.454
 1432SOL     OW 4887   2.872   0.047   2.625
 1432SOL    HW1 4888   2.812   0.047   2.550
 1432SOL    HW2 4889   2.854  -0.035   2.670
 1433SOL     OW 4890   3.296   1.166   2.723
 1433SOL    HW1 4891   3.233   1.094   2.718
 1433SOL    HW2 4892   3.316   1.187   2.632
 1434SOL     OW 4893   3.333   0.595   2.848
 1434SOL    HW1 4894   3.291   0.509   2.857
 1434SOL    HW2 4895   3.395   0.600   2.920
 1435SOL     OW 4896   3.711   0.825   2.242
 1435SOL    HW1 4897   3.764   0.768   2.298
 1435SOL    HW2 4898   3.683   0.768   2.170
 1436SOL     OW 4899   2.355   1.402   2.031
 1436SOL    HW1 4900   2.277   1.375   2.078
 1436SOL    HW2 4901   2.329   1.401   1.939
 1437SOL     OW 4902   3.528   1.269   2.518
 1437SOL    HW1 4903   3.622   1.280   2.527
 1437SOL    HW2 4904   3.492   1.355   2.538
 1438SOL     OW 4905   3.254   0.571   1.933
 1438SOL    HW1 4906   3.198   0.554   2.010
 1438SOL    HW2 4907   3.340   0.539   1.959
 1439SOL     OW 4908   2.387   0.261   2.187
 1439SOL    HW1 4909   2.423   0.210   2.115
 1439SOL    HW2 4910   2.379   0.350   2.152
 1440SOL     OW 4911   3.624   1.220   3.433
 1440SOL    HW1 4912   3.716   1.195   3.433
 1440SOL    HW2 4913   3.623   1.308   3.469
 1441SOL     OW 4914   2.929   1.352   3.201
 1441SOL    HW1 4915   2.852   1.321   3.248
 1441SOL    HW2 4916   3.003   1.308   3.244
 1442SOL     OW 4917   2.980   1.198   2.969
 1442SOL    HW1 4918   2.926   1.239   3.036
 1442SOL    HW2 4919   2.943   1.230   2.886
 1443SOL     OW 4920   3.498   1.102   2.940
 1443SOL    HW1 4921   3.495   1.167   3.010
 1443SOL    HW2 4922   3.414   1.112   2.895
 1444SOL     OW 4923   2.775   0.099   3.268
 1444SOL    HW1 4924   2.795   0.074   3.178
 1444SOL    HW2 4925   2.856   0.138   3.301
 1445SOL     OW 4926   2.568   1.057   2.234
 1445SOL    HW1 4927   2.557   1.048   2.329
 1445SOL    HW2 4928   2.646   1.004   2.215
 1446SOL     OW 4929   2.276   0.812   3.112
 1446SOL    HW1 4930   2.347   0.823   3.174
 1446SOL    HW2 4931   2.238   0.727   3.134
 1447SOL     OW 4932   3.134   0.381   3.129
 1447SOL    HW1 4933   3.160   0.458   3.179
 1447SOL    HW2 4934   3.047   0.403   3.096
 1448SOL     OW 4935   1.928   1.572   3.197
 1448SOL    HW1 4936   1.893   1.650   3.153
 1448SOL    HW2 4937   2.023   1.586   3.199
 1449SOL     OW 4938   2.222   1.102   2.358
 1449SOL    HW1 4939   2.223   1.178   2.299
 1449SOL    HW2 4940   2.225   1.026   2.300
 1450SOL     OW 4941   2.422   0.538   2.725
 1450SOL    HW1 4942   2.440   0.598   2.653
 1450SOL    HW2 4943   2.477   0.571   2.797
 1451SOL     OW 4944   3.110   1.347   2.253
 1451SOL    HW1 4945   3.162   1.421   2.284
 1451SOL    HW2 4946   3.022   1.363   2.285
 1452SOL     OW 4947   3.133   1.452   3.006
 1452SOL    HW1 4948   3.185   1.456   3.086
 1452SOL    HW2 4949   3.078   1.374   3.017
 1453SOL     OW 4950   3.446   0.632   2.335
 1453SOL    HW1 4951   3.409   0.692   2.400
 1453SOL    HW2 4952   3.491   0.689   2.273
 1454SOL     OW 4953   2.213   1.517   3.186
 1454SOL    HW1 4954   2.198   1.474   3.102
 1454SOL    HW2 4955   2.307   1.533   3.188
 1455SOL     OW 4956   2.264   0.748   3.462
 1455SOL    HW1 4957   2.328   0.800   3.414
 1455SOL    HW2 4958   2.310   0.667   3.484
 1456SOL     OW 4959   3.453   0.767   3.526
 1456SOL    HW1 4960   3.375   0.821   3.538
 1456SOL    HW2 4961   3.514   0.822   3.476
 1457SOL     OW 4962   2.441   0.870   2.893
 1457SOL    HW1 4963   2.474   0.960   2.887
 1457SOL    HW2 4964   2.383   0.871   2.968
 1458SOL     OW 4965   3.224   0.861   2.901
 1458SOL    HW1 4966   3.147   0.857   2.845
 1458SOL    HW2 4967   3.256   0.771   2.906
 1459SOL     OW 4968   3.074   0.528   2.135
 1459SOL    HW1 4969   3.079   0.450   2.189
 1459SOL    HW2 4970   3.035   0.594   2.192
 1460SOL     OW 4971   2.170   0.209   3.101
 1460SOL    HW1 4972   2.138   0.246   3.183
 1460SOL    HW2 4973   2.139   0.119   3.102
 1461SOL     OW 4974   1.909   1.308   3.139
 1461SOL    HW1 4975   1.943   1.261   3.215
 1461SOL    HW2 4976   1.916   1.401   3.163
 1462SOL     OW 4977   2.592   0.634   2.926
 1462SOL    HW1 4978   2.657   0.613   2.858
 1462SOL    HW2 4979   2.564   0.723   2.904
 1463SOL     OW 4980   2.159   0.062   2.486
 1463SOL    HW1 4981   2.154   0.152   2.516
 1463SOL    HW2 4982   2.168   0.010   2.566
 1464SOL     OW 4983   3.471   0.368   2.232
 1464SOL    HW1 4984   3.497   0.305   2.300
 1464SOL    HW2 4985   3.446   0.447   2.281
 1465SOL     OW 4986   2.887   0.762   2.827
 1465SOL    HW1 4987   2.894   0.780   2.921
 1465SOL    HW2 4988   2.859   0.671   2.821
 1466SOL     OW 4989   3.726   1.488   3.445
 1466SOL    HW1 4990   3.739   1.534   3.362
 1466SOL    HW2 4991   3.772   1.542   3.509
 1467SOL     OW 4992   3.397   0.272   1.988
 1467SOL    HW1 4993   3.333   0.208   2.018
 1467SOL    HW2 4994   3.427   0.315   2.069
 1468SOL     OW 4995   3.161   0.830   1.900
 1468SOL    HW1 4996   3.201   0.743   1.904
 1468SOL    HW2 4997   3.188   0.865   1.815
 1469SOL     OW 4998   2.928   1.334   2.713
 1469SOL    HW1 4999   2.932   1.259   2.653
 1469SOL    HW2 5000   2.991   1.397   2.678
 1470SOL     OW 5001   2.176   0.812   2.812
 1470SOL    HW1 5002   2.269   0.835   2.809
 1470SOL    HW2 5003   2.174   0.725   2.853
 1471SOL     OW 5004   2.198   0.516   2.869
 1471SOL    HW1 5005   2.159   0.430   2.852
 1471SOL    HW2 5006   2.273   0.521   2.811
 1472SOL     OW 5007   3.012   0.213   3.340
 1472SOL    HW1 5008   3.029   0.277   3.410
 1472SOL    HW2 5009   3.051   0.254   3.262
 1473SOL     OW 5010   1.867   1.325   2.058
 1473SOL    HW1 5011   1.779   1.338   2.023
 1473SOL    HW2 5012   1.869   1.234   2.085
 1474SOL     OW 5013   1.951   1.795   2.794
 1474SOL    HW1 5014   1.918   1.713   2.756
 1474SOL    HW2 5015   2.041   1.802   2.762
 1475SOL     OW 5016   2.364   1.572   2.766
 1475SOL    HW1 5017   2.433   1.635   2.788
 1475SOL    HW2 5018   2.410   1.500   2.722
 1476SOL     OW 5019   2.858   0.796   3.093
 1476SOL    HW1 5020   2.902   0.769   3.173
 1476SOL    HW2 5021   2.768   0.765   3.103
 1477SOL     OW 5022   1.899   0.538   2.978
 1477SOL    HW1 5023   1.984   0.521   2.935
 1477SOL    HW2 5024   1.922   0.553   3.070
 1478SOL     OW 5025   2.676   0.568   2.206
 1478SOL    HW1 5026   2.679   0.492   2.149
 1478SOL    HW2 5027   2.596   0.615   2.180
 1479SOL     OW 5028   3.506   0.599   3.055
 1479SOL    HW1 5029   3.492   0.540   3.129
 1479SOL    HW2 5030   3.594   0.576   3.024
 1480SOL     OW 5031   2.145   1.555   0.059
 1480SOL    HW1 5032   2.086   1.614   0.107
 1480SOL    HW2 5033   2.111   1.468   0.076
 1481SOL     OW 5034   2.548   0.459   3.129
 1481SOL    HW1 5035   2.502   0.381   3.096
 1481SOL    HW2 5036   2.553   0.517   3.053
 1482SOL     OW 5037   2.801   1.675   3.330
 1482SOL    HW1 5038   2.769   1.651   3.243
 1482SOL    HW2 5039   2.808   1.770   3.328
 1483SOL     OW 5040   2.333   0.496   2.052
 1483SOL    HW1 5041   2.389   0.572   2.066
 1483SOL    HW2 5042   2.244   0.531   2.050
 1484SOL     OW 5043   2.019   1.139   3.330
 1484SOL    HW1 5044   2.029   1.079   3.404
 1484SOL    HW2 5045   2.031   1.083   3.253
 1485SOL     OW 5046   3.198   1.054   3.093
 1485SOL    HW1 5047   3.225   0.994   3.023
 1485SOL    HW2 5048   3.120   1.097   3.059
 1486SOL     OW 5049   3.168   0.852   2.172
 1486SOL    HW1 5050   3.085   0.827   2.213
 1486SOL    HW2 5051   3.150   0.844   2.078
 1487SOL     OW 5052   3.623   1.750   3.012
 1487SOL    HW1 5053   3.683   1.774   2.942
 1487SOL    HW2 5054   3.599   1.659   2.993
 1488SOL     OW 5055   3.107   1.732   2.985
 1488SOL    HW1 5056   3.188   1.743   2.936
 1488SOL    HW2 5057   3.102   1.638   3.001
 1489SOL     OW 5058   1.945   1.262   2.879
 1489SOL    HW1 5059   1.935   1.269   2.974
 1489SOL    HW2 5060   1.868   1.214   2.850
 1490SOL     OW 5061   3.579   0.136   2.371
 1490SOL    HW1 5062   3.661   0.124   2.322
 1490SOL    HW2 5063   3.570   0.056   2.422
 1491SOL     OW 5064   3.251   1.569   2.342
 1491SOL    HW1 5065   3.312   1.594   2.273
 1491SOL    HW2 5066   3.208   1.650   2.367
 1492SOL     OW 5067   3.139   0.922   2.533
 1492SOL    HW1 5068   3.211   0.858   2.534
 1492SOL    HW2 5069   3.174   0.995   2.481
 1493SOL     OW 5070   2.688   1.270   3.290
 1493SOL    HW1 5071   2.674   1.303   3.379
 1493SOL    HW2 5072   2.608   1.294   3.243
 1494SOL     OW 5073   2.534   1.614   2.018
 1494SOL    HW1 5074   2.543   1.624   1.923
 1494SOL    HW2 5075   2.488   1.531   2.029
 1495SOL     OW 5076   3.502   1.722   3.262
 1495SOL    HW1 5077   3.548   1.731   3.178
 1495SOL    HW2 5078   3.486   1.812   3.290
 1496SOL     OW 5079   3.704   0.155   2.828
 1496SOL    HW1 5080   3.732   0.088   2.766
 1496SOL    HW2 5081   3.618   0.183   2.797
 1497SOL     OW 5082   2.130   0.320   2.582
 1497SOL    HW1 5083   2.048   0.361   2.554
 1497SOL    HW2 5084   2.121   0.310   2.676
 1498SOL     OW 5085   3.062   1.610   1.893
 1498SOL    HW1 5086   3.060   1.519   1.921
 1498SOL    HW2 5087   2.999   1.615   1.821
 1499SOL     OW 5088   2.684   1.005   3.231
 1499SOL    HW1 5089   2.726   1.005   3.145
 1499SOL    HW2 5090   2.690   1.096   3.261
 1500SOL     OW 5091   2.778   0.910   2.152
 1500SOL    HW1 5092   2.839   0.942   2.086
 1500SOL    HW2 5093   2.822   0.835   2.192
 1501SOL     OW 5094   3.366   1.621   1.904
 1501SOL    HW1 5095   3.270   1.629   1.902
 1501SOL    HW2 5096   3.393   1.630   1.813
 1502SOL     OW 5097   2.234   1.299   3.368
 1502SOL    HW1 5098   2.222   1.376   3.312
 1502SOL    HW2 5099   2.160   1.242   3.346
 1503SOL     OW 5100   3.475   1.284   3.147
 1503SOL    HW1 5101   3.533   1.283   3.223
 1503SOL    HW2 5102   3.415   1.357   3.164
 1504SOL     OW 5103   2.904   1.101   2.564
 1504SOL    HW1 5104   2.836   1.050   2.607
 1504SOL    HW2 5105   2.962   1.036   2.524
 1505SOL     OW 5106   2.883   0.240   2.827
 1505SOL    HW1 5107   2.870   0.194   2.744
 1505SOL    HW2 5108   2.870   0.173   2.894
 1506SOL     OW 5109   2.459   1.489   2.348
 1506SOL    HW1 5110   2.495   1.435   2.278
 1506SOL    HW2 5111   2.404   1.553   2.304
 1507SOL     OW 5112   3.571   0.390   3.244
 1507SOL    HW1 5113   3.640   0.456   3.252
 1507SOL    HW2 5114   3.610   0.322   3.189
 1508SOL     OW 5115   2.118   1.351   2.146
 1508SOL    HW1 5116   2.024   1.348   2.128
 1508SOL    HW2 5117   2.124   1.388   2.235
 1509SOL     OW 5118   1.976   0.998   0.026
 1509SOL    HW1 5119   1.897   0.993   0.080
 1509SOL    HW2 5120   2.049   0.991   0.088
 1510SOL     OW 5121   2.532   0.203   3.355
 1510SOL    HW1 5122   2.615   0.179   3.315
 1510SOL    HW2 5123   2.553   0.217   3.447
 1511SOL     OW 5124   1.936   0.349   1.902
 1511SOL    HW1 5125   1.854   0.317   1.864
 1511SOL    HW2 5126   1.964   0.419   1.843
 1512SOL     OW 5127   3.295   0.850   3.262
 1512SOL    HW1 5128   3.248   0.913   3.207
 1512SOL    HW2 5129   3.387   0.863   3.240
 1513SOL     OW 5130   1.927   0.159   2.176
 1513SOL    HW1 5131   1.920   0.241   2.128
 1513SOL    HW2 5132   2.016   0.128   2.158
 1514SOL     OW 5133   3.046   1.342   1.980
 1514SOL    HW1 5134   2.953   1.318   1.983
 1514SOL    HW2 5135   3.074   1.342   2.072
 1515SOL     OW 5136   2.477   0.836   3.292
 1515SOL    HW1 5137   2.533   0.913   3.278
 1515SOL    HW2 5138   2.538   0.763   3.300
 1516SOL     OW 5139   3.351   1.770   2.829
 1516SOL    HW1 5140   3.382   1.828   2.759
 1516SOL    HW2 5141   3.425   1.761   2.888
 1517SOL     OW 5142   2.584   0.570   0.018
 1517SOL    HW1 5143   2.593   0.627   0.094
 1517SOL    HW2 5144   2.629   0.490   0.043
 1518SOL     OW 5145   2.251   1.739   3.421
 1518SOL    HW1 5146   2.165   1.782   3.418
 1518SOL    HW2 5147   2.234   1.655   3.463
 1519SOL     OW 5148   3.537   0.883   3.117
 1519SOL    HW1 5149   3.519   0.799   3.076
 1519SOL    HW2 5150   3.531   0.947   3.046
 1520SOL     OW 5151   3.084   0.322   2.316
 1520SOL    HW1 5152   3.148   0.251   2.310
 1520SOL    HW2 5153   3.108   0.369   2.395
 1521SOL     OW 5154   2.455   0.744   2.522
 1521SOL    HW1 5155   2.497   0.828   2.504
 1521SOL    HW2 5156   2.379   0.741   2.464
 1522SOL     OW 5157   3.606   0.933   3.376
 1522SOL    HW1 5158   3.612   1.028   3.390
 1522SOL    HW2 5159   3.588   0.924   3.282
 1523SOL     OW 5160   2.720   1.371   1.884
 1523SOL    HW1 5161   2.682   1.396   1.968
 1523SOL    HW2 5162   2.752   1.453   1.847
 1524SOL     OW 5163   2.520   1.795   2.816
 1524SOL    HW1 5164   2.492   1.883   2.791
 1524SOL    HW2 5165   2.615   1.795   2.804
 1525SOL     OW 5166   2.724   0.960   2.720
 1525SOL    HW1 5167   2.776   0.893   2.765
 1525SOL    HW2 5168   2.695   1.019   2.790
 1526SOL     OW 5169   2.943   0.985   1.951
 1526SOL    HW1 5170   2.921   1.035   1.873
 1526SOL    HW2 5171   3.020   0.935   1.926
 1527SOL     OW 5172   3.723   1.561   2.708
 1527SOL    HW1 5173   3.648   1.551   2.650
 1527SOL    HW2 5174   3.714   1.491   2.773
 1528SOL     OW 5175   1.944   1.239   2.521
 1528SOL    HW1 5176   1.944   1.189   2.602
 1528SOL    HW2 5177   2.017   1.203   2.471
 1529SOL     OW 5178   2.513   1.394   3.466
 1529SOL    HW1 5179   2.452   1.340   3.517
 1529SOL    HW2 5180   2.516   1.477   3.512
 1530SOL     OW 5181   3.710   0.215   3.106
 1530SOL    HW1 5182   3.676   0.128   3.126
 1530SOL    HW2 5183   3.703   0.221   3.010
 1531SOL     OW 5184   2.290   0.430   2.383
 1531SOL    HW1 5185   2.319   0.357   2.328
 1531SOL    HW2 5186   2.250   0.388   2.459
 1532SOL     OW 5187   3.565   1.493   2.967
 1532SOL    HW1 5188   3.482   1.462   2.931
 1532SOL    HW2 5189   3.586   1.430   3.036
 1533SOL     OW 5190   2.183   0.548   3.148
 1533SOL    HW1 5191   2.236   0.494   3.208
 1533SOL    HW2 5192   2.214   0.523   3.061
 1534SOL     OW 5193   2.682   1.579   2.547
 1534SOL    HW1 5194   2.692   1.608   2.456
 1534SOL    HW2 5195   2.601   1.528   2.547
 1535SOL     OW 5196   3.295   0.219   2.979
 1535SOL    HW1 5197   3.337   0.153   3.035
 1535SOL    HW2 5198   3.241   0.271   3.039
 1536SOL     OW 5199   2.851   0.037   3.009
 1536SOL    HW1 5200   2.808  -0.048   3.002
 1536SOL    HW2 5201   2.944   0.017   3.011
 1537SOL     OW 5202   2.632   1.332   2.168
 1537SOL    HW1 5203   2.595   1.244   2.176
 1537SOL    HW2 5204   2.717   1.326   2.211
 1538SOL     OW 5205   2.481   1.564   3.144
 1538SOL    HW1 5206   2.484   1.643   3.198
 1538SOL    HW2 5207   2.568   1.558   3.105
 1539SOL     OW 5208   3.219   0.049   2.027
 1539SOL    HW1 5209   3.240   0.012   1.941
 1539SOL    HW2 5210   3.128   0.024   2.043
 1540SOL     OW 5211   3.161   0.457   2.549
 1540SOL    HW1 5212   3.106   0.534   2.557
 1540SOL    HW2 5213   3.163   0.419   2.637
 1541SOL     OW 5214   3.458   0.218   2.743
 1541SOL    HW1 5215   3.381   0.224   2.800
 1541SOL    HW2 5216   3.452   0.296   2.687
 1542SOL     OW 5217   1.904   1.076   2.164
 1542SOL    HW1 5218   1.998   1.065   2.151
 1542SOL    HW2 5219   1.872   0.989   2.190
 1543SOL     OW 5220   2.737   1.644   2.209
 1543SOL    HW1 5221   2.668   1.626   2.145
 1543SOL    HW2 5222   2.708   1.723   2.255
 1544SOL     OW 5223   2.094   2.477   0.130
 1544SOL    HW1 5224   2.001   2.486   0.153
 1544SOL    HW2 5225   2.093   2.458   0.036
 1545SOL     OW 5226   2.084   2.133   0.991
 1545SOL    HW1 5227   2.110   2.097   1.075
 1545SOL    HW2 5228   1.995   2.100   0.977
 1546SOL     OW 5229   1.871   2.242   0.638
 1546SOL    HW1 5230   1.789   2.265   0.682
 1546SOL    HW2 5231   1.851   2.162   0.590
 1547SOL     OW 5232   3.418   3.373   0.698
 1547SOL    HW1 5233   3.371   3.360   0.780
 1547SOL    HW2 5234   3.349   3.383   0.632
 1548SOL     OW 5235   2.995   2.560   0.711
 1548SOL    HW1 5236   3.044   2.640   0.696
 1548SOL    HW2 5237   2.939   2.579   0.786
 1549SOL     OW 5238   3.628   2.467   0.229
 1549SOL    HW1 5239   3.593   2.464   0.139
 1549SOL    HW2 5240   3.589   2.391   0.272
 1550SOL     OW 5241   2.713   2.654   1.820
 1550SOL    HW1 5242   2.711   2.726   1.883
 1550SOL    HW2 5243   2.742   2.694   1.738
 1551SOL     OW 5244   2.548   2.873   0.655
 1551SOL    HW1 5245   2.611   2.859   0.726
 1551SOL    HW2 5246   2.479   2.924   0.696
 1552SOL     OW 5247   2.562   3.016   1.805
 1552SOL    HW1 5248   2.613   3.095   1.822
 1552SOL    HW2 5249   2.478   3.049   1.773
 1553SOL     OW 5250   3.469   2.311   0.742
 1553SOL    HW1 5251   3.399   2.347   0.687
 1553SOL    HW2 5252   3.511   2.388   0.781
 1554SOL     OW 5253   2.085   3.574   0.477
 1554SOL    HW1 5254   2.114   3.648   0.530
 1554SOL    HW2 5255   2.146   3.572   0.403
 1555SOL     OW 5256   2.992   3.208   1.695
 1555SOL    HW1 5257   3.035   3.196   1.780
 1555SOL    HW2 5258   2.945   3.126   1.681
 1556SOL     OW 5259   2.089   3.299   0.534
 1556SOL    HW1 5260   2.073   3.393   0.543
 1556SOL    HW2 5261   2.024   3.258   0.590
 1557SOL     OW 5262   2.103   2.956   0.886
 1557SOL    HW1 5263   2.110   2.870   0.928
 1557SOL    HW2 5264   2.046   3.006   0.945
 1558SOL     OW 5265   2.501   3.649   1.489
 1558SOL    HW1 5266   2.408   3.628   1.479
 1558SOL    HW2 5267   2.507   3.742   1.465
 1559SOL     OW 5268   2.458   2.832   0.135
 1559SOL    HW1 5269   2.478   2.897   0.068
 1559SOL    HW2 5270   2.511   2.858   0.211
 1560SOL     OW 5271   1.979   2.509   0.561
 1560SOL    HW1 5272   1.946   2.421   0.580
 1560SOL    HW2 5273   1.970   2.556   0.644
 1561SOL     OW 5274   3.701   3.630   0.351
 1561SOL    HW1 5275   3.756   3.600   0.423
 1561SOL    HW2 5276   3.735   3.717   0.329
 1562SOL     OW 5277   1.889   3.472   0.139
 1562SOL    HW1 5278   1.864   3.380   0.153
 1562SOL    HW2 5279   1.857   3.517   0.218
 1563SOL     OW 5280   3.553   2.781   0.629
 1563SOL    HW1 5281   3.642   2.749   0.616
 1563SOL    HW2 5282   3.535   2.834   0.552
 1564SOL     OW 5283   3.507   2.968   0.434
 1564SOL    HW1 5284   3.586   2.983   0.383
 1564SOL    HW2 5285   3.514   3.029   0.508
 1565SOL     OW 5286   1.981   2.602   1.587
 1565SOL    HW1 5287   2.068   2.609   1.626
 1565SOL    HW2 5288   1.947   2.692   1.589
 1566SOL     OW 5289   2.476   3.232   0.728
 1566SOL    HW1 5290   2.424   3.152   0.736
 1566SOL    HW2 5291   2.453   3.267   0.642
 1567SOL     OW 5292   3.131   3.073   1.465
 1567SOL    HW1 5293   3.176   3.035   1.390
 1567SOL    HW2 5294   3.202   3.093   1.527
 1568SOL     OW 5295   2.669   1.861   0.496
 1568SOL    HW1 5296   2.711   1.947   0.494
 1568SOL    HW2 5297   2.577   1.879   0.514
 1569SOL     OW 5298   3.387   2.859   0.195
 1569SOL    HW1 5299   3.325   2.790   0.218
 1569SOL    HW2 5300   3.429   2.883   0.278
 1570SOL     OW 5301   3.047   3.659   1.618
 1570SOL    HW1 5302   3.064   3.716   1.544
 1570SOL    HW2 5303   3.062   3.570   1.584
 1571SOL     OW 5304   2.185   2.114   1.800
 1571SOL    HW1 5305   2.242   2.189   1.816
 1571SOL    HW2 5306   2.101   2.140   1.836
 1572SOL     OW 5307   3.311   3.285   0.925
 1572SOL    HW1 5308   3.275   3.293   1.013
 1572SOL    HW2 5309   3.311   3.191   0.907
 1573SOL     OW 5310   3.525   3.586   0.576
 1573SOL    HW1 5311   3.495   3.559   0.490
 1573SOL    HW2 5312   3.501   3.514   0.634
 1574SOL     OW 5313   2.459   2.588   0.262
 1574SOL    HW1 5314   2.471   2.666   0.207
 1574SOL    HW2 5315   2.392   2.614   0.325
 1575SOL     OW 5316   3.151   2.190   0.916
 1575SOL    HW1 5317   3.061   2.155   0.920
 1575SOL    HW2 5318   3.189   2.168   1.001
 1576SOL     OW 5319   3.441   3.528   0.309
 1576SOL    HW1 5320   3.528   3.568   0.306
 1576SOL    HW2 5321   3.423   3.505   0.218
 1577SOL     OW 5322   3.257   2.330   1.682
 1577SOL    HW1 5323   3.253   2.374   1.767
 1577SOL    HW2 5324   3.327   2.266   1.692
 1578SOL     OW 5325   2.822   2.753   1.579
 1578SOL    HW1 5326   2.877   2.678   1.555
 1578SOL    HW2 5327   2.788   2.785   1.496
 1579SOL     OW 5328   2.909   2.562   0.429
 1579SOL    HW1 5329   2.923   2.554   0.523
 1579SOL    HW2 5330   2.827   2.515   0.412
 1580SOL     OW 5331   1.946   2.678   0.776
 1580SOL    HW1 5332   2.033   2.670   0.815
 1580SOL    HW2 5333   1.912   2.760   0.812
 1581SOL     OW 5334   1.991   3.682   1.579
 1581SOL    HW1 5335   1.985   3.672   1.674
 1581SOL    HW2 5336   1.912   3.729   1.554
 1582SOL     OW 5337   2.730   2.216   0.190
 1582SOL    HW1 5338   2.799   2.263   0.142
 1582SOL    HW2 5339   2.744   2.124   0.167
 1583SOL     OW 5340   3.565   2.434   1.832
 1583SOL    HW1 5341   3.552   2.524   1.800
 1583SOL    HW2 5342   3.593   2.385   1.755
 1584SOL     OW 5343   3.232   3.005   0.543
 1584SOL    HW1 5344   3.309   2.986   0.490
 1584SOL    HW2 5345   3.182   3.068   0.491
 1585SOL     OW 5346   2.406   2.053   0.891
 1585SOL    HW1 5347   2.410   2.069   0.985
 1585SOL    HW2 5348   2.416   2.140   0.852
 1586SOL     OW 5349   2.873   3.312   0.476
 1586SOL    HW1 5350   2.828   3.382   0.428
 1586SOL    HW2 5351   2.863   3.336   0.568
 1587SOL     OW 5352   2.217   3.665   0.853
 1587SOL    HW1 5353   2.259   3.580   0.864
 1587SOL    HW2 5354   2.289   3.728   0.856
 1588SOL     OW 5355   3.658   2.922   0.873
 1588SOL    HW1 5356   3.599   2.915   0.797
 1588SOL    HW2 5357   3.600   2.943   0.946
 1589SOL     OW 5358   3.082   3.409   1.514
 1589SOL    HW1 5359   3.088   3.329   1.567
 1589SOL    HW2 5360   3.042   3.381   1.432
 1590SOL     OW 5361   2.177   2.813   0.225
 1590SOL    HW1 5362   2.266   2.834   0.196
 1590SOL    HW2 5363   2.167   2.720   0.205
 1591SOL     OW 5364   3.330   2.599   0.724
 1591SOL    HW1 5365   3.319   2.545   0.802
 1591SOL    HW2 5366   3.406   2.653   0.743
 1592SOL     OW 5367   2.324   3.117   1.738
 1592SOL    HW1 5368   2.283   3.139   1.654
 1592SOL    HW2 5369   2.251   3.116   1.801
 1593SOL     OW 5370   2.966   3.646   0.234
 1593SOL    HW1 5371   2.913   3.590   0.290
 1593SOL    HW2 5372   2.998   3.587   0.166
 1594SOL     OW 5373   2.068   2.167   1.503
 1594SOL    HW1 5374   1.978   2.197   1.493
 1594SOL    HW2 5375   2.064   2.099   1.571
 1595SOL     OW 5376   3.490   3.240   0.096
 1595SOL    HW1 5377   3.451   3.325   0.073
 1595SOL    HW2 5378   3.425   3.176   0.067
 1596SOL     OW 5379   2.329   3.601   0.323
 1596SOL    HW1 5380   2.362   3.653   0.396
 1596SOL    HW2 5381   2.404   3.590   0.265
 1597SOL     OW 5382   3.263   1.973   0.427
 1597SOL    HW1 5383   3.248   1.942   0.338
 1597SOL    HW2 5384   3.358   1.978   0.435
 1598SOL     OW 5385   2.806   3.561   0.897
 1598SOL    HW1 5386   2.874   3.498   0.920
 1598SOL    HW2 5387   2.751   3.514   0.834
 1599SOL     OW 5388   2.248   2.559   0.480
 1599SOL    HW1 5389   2.279   2.469   0.482
 1599SOL    HW2 5390   2.156   2.553   0.503
 1600SOL     OW 5391   3.405   2.092   1.730
 1600SOL    HW1 5392   3.398   2.107   1.824
 1600SOL    HW2 5393   3.340   2.024   1.712
 1601SOL     OW 5394   2.477   1.980   0.114
 1601SOL    HW1 5395   2.570   1.960   0.121
 1601SOL    HW2 5396   2.452   1.953   0.026
 1602SOL     OW 5397   2.637   2.134   1.749
 1602SOL    HW1 5398   2.703   2.070   1.775
 1602SOL    HW2 5399   2.578   2.139   1.825
 1603SOL     OW 5400   3.198   2.462   1.461
 1603SOL    HW1 5401   3.234   2.415   1.536
 1603SOL    HW2 5402   3.252   2.541   1.453
 1604SOL     OW 5403   2.665   3.267   0.917
 1604SOL    HW1 5404   2.753   3.258   0.878
 1604SOL    HW2 5405   2.605   3.255   0.843
 1605SOL     OW 5406   2.784   2.370   0.897
 1605SOL    HW1 5407   2.760   2.358   0.805
 1605SOL    HW2 5408   2.826   2.288   0.922
 1606SOL     OW 5409   2.408   1.924   0.510
 1606SOL    HW1 5410   2.327   1.927   0.561
 1606SOL    HW2 5411   2.404   2.003   0.455
 1607SOL     OW 5412   3.288   3.058   0.033
 1607SOL    HW1 5413   3.326   2.986   0.083
 1607SOL    HW2 5414   3.203   3.075   0.075
 1608SOL     OW 5415   2.155   1.905   0.181
 1608SOL    HW1 5416   2.213   1.974   0.150
 1608SOL    HW2 5417   2.214   1.838   0.216
 1609SOL     OW 5418   2.795   2.103   0.472
 1609SOL    HW1 5419   2.762   2.143   0.392
 1609SOL    HW2 5420   2.891   2.108   0.464
 1610SOL     OW 5421   2.937   2.534   1.488
 1610SOL    HW1 5422   2.870   2.470   1.463
 1610SOL    HW2 5423   3.019   2.494   1.460
 1611SOL     OW 5424   3.087   3.435   0.795
 1611SOL    HW1 5425   3.109   3.501   0.730
 1611SOL    HW2 5426   3.161   3.436   0.856
 1612SOL     OW 5427   2.326   3.004   0.742
 1612SOL    HW1 5428   2.250   2.993   0.800
 1612SOL    HW2 5429   2.291   2.989   0.654
 1613SOL     OW 5430   3.134   3.658   0.597
 1613SOL    HW1 5431   3.175   3.722   0.539
 1613SOL    HW2 5432   3.076   3.710   0.653
 1614SOL     OW 5433   2.881   2.407   0.035
 1614SOL    HW1 5434   2.864   2.485  -0.017
 1614SOL    HW2 5435   2.958   2.428   0.087
 1615SOL     OW 5436   1.926   2.420   1.396
 1615SOL    HW1 5437   2.019   2.414   1.374
 1615SOL    HW2 5438   1.922   2.489   1.462
 1616SOL     OW 5439   2.732   2.320   0.639
 1616SOL    HW1 5440   2.690   2.377   0.575
 1616SOL    HW2 5441   2.750   2.239   0.592
 1617SOL     OW 5442   2.883   1.908   0.750
 1617SOL    HW1 5443   2.814   1.906   0.685
 1617SOL    HW2 5444   2.861   1.838   0.812
 1618SOL     OW 5445   3.298   3.025   0.858
 1618SOL    HW1 5446   3.231   2.956   0.851
 1618SOL    HW2 5447   3.315   3.050   0.767
 1619SOL     OW 5448   3.714   2.685   0.378
 1619SOL    HW1 5449   3.764   2.627   0.436
 1619SOL    HW2 5450   3.682   2.628   0.309
 1620SOL     OW 5451   2.356   3.254   0.159
 1620SOL    HW1 5452   2.285   3.232   0.220
 1620SOL    HW2 5453   2.311   3.279   0.078
 1621SOL     OW 5454   3.528   3.130   0.660
 1621SOL    HW1 5455   3.623   3.144   0.663
 1621SOL    HW2 5456   3.491   3.217   0.675
 1622SOL     OW 5457   3.246   2.435   0.072
 1622SOL    HW1 5458   3.196   2.413   0.151
 1622SOL    HW2 5459   3.333   2.398   0.087
 1623SOL     OW 5460   2.390   2.123   0.327
 1623SOL    HW1 5461   2.421   2.068   0.255
 1623SOL    HW2 5462   2.378   2.210   0.288
 1624SOL     OW 5463   3.605   3.076   1.579
 1624SOL    HW1 5464   3.693   3.044   1.559
 1624SOL    HW2 5465   3.619   3.168   1.603
 1625SOL     OW 5466   2.846   2.973   1.725
 1625SOL    HW1 5467   2.752   2.990   1.731
 1625SOL    HW2 5468   2.853   2.900   1.664
 1626SOL     OW 5469   2.569   2.920   0.372
 1626SOL    HW1 5470   2.557   2.911   0.467
 1626SOL    HW2 5471   2.647   2.867   0.353
 1627SOL     OW 5472   2.221   2.965   0.496
 1627SOL    HW1 5473   2.222   3.040   0.438
 1627SOL    HW2 5474   2.227   2.889   0.438
 1628SOL     OW 5475   2.428   2.402   0.869
 1628SOL    HW1 5476   2.442   2.455   0.791
 1628SOL    HW2 5477   2.494   2.434   0.931
 1629SOL     OW 5478   3.110   3.208   0.392
 1629SOL    HW1 5479   3.162   3.283   0.423
 1629SOL    HW2 5480   3.022   3.225   0.423
 1630SOL     OW 5481   3.448   2.495   0.476
 1630SOL    HW1 5482   3.407   2.557   0.537
 1630SOL    HW2 5483   3.489   2.550   0.409
 1631SOL     OW 5484   2.269   2.604   1.605
 1631SOL    HW1 5485   2.333   2.655   1.555
 1631SOL    HW2 5486   2.316   2.523   1.628
 1632SOL     OW 5487   3.453   2.638   1.665
 1632SOL    HW1 5488   3.370   2.686   1.666
 1632SOL    HW2 5489   3.505   2.681   1.597
 1633SOL     OW 5490   2.862   1.971   1.762
 1633SOL    HW1 5491   2.899   2.048   1.719
 1633SOL    HW2 5492   2.913   1.898   1.726
 1634SOL     OW 5493   2.361   1.908   1.748
 1634SOL    HW1 5494   2.327   1.857   1.674
 1634SOL    HW2 5495   2.296   1.978   1.760
 1635SOL     OW 5496   3.072   2.389   0.274
 1635SOL    HW1 5497   3.078   2.311   0.328
 1635SOL    HW2 5498   3.035   2.456   0.332
 1636SOL     OW 5499   3.587   2.821   1.846
 1636SOL    HW1 5500   3.535   2.780   1.776
 1636SOL    HW2 5501   3.526   2.832   1.919
 1637SOL     OW 5502   2.164   1.928   0.622
 1637SOL    HW1 5503   2.150   2.018   0.652
 1637SOL    HW2 5504   2.164   1.876   0.703
 1638SOL     OW 5505   3.473   2.231   0.370
 1638SOL    HW1 5506   3.498   2.166   0.436
 1638SOL    HW2 5507   3.446   2.307   0.421
 1639SOL     OW 5508   2.839   3.430   1.704
 1639SOL    HW1 5509   2.830   3.475   1.620
 1639SOL    HW2 5510   2.884   3.348   1.683
 1640SOL     OW 5511   2.213   2.776   1.806
 1640SOL    HW1 5512   2.295   2.797   1.851
 1640SOL    HW2 5513   2.239   2.713   1.738
 1641SOL     OW 5514   3.402   2.137   0.123
 1641SOL    HW1 5515   3.339   2.068   0.145
 1641SOL    HW2 5516   3.427   2.175   0.207
 1642SOL     OW 5517   3.165   2.693   0.036
 1642SOL    HW1 5518   3.198   2.603   0.043
 1642SOL    HW2 5519   3.181   2.717  -0.056
 1643SOL     OW 5520   2.928   3.200   0.847
 1643SOL    HW1 5521   2.934   3.122   0.790
 1643SOL    HW2 5522   2.993   3.260   0.811
 1644SOL     OW 5523   2.179   2.678   0.929
 1644SOL    HW1 5524   2.272   2.700   0.936
 1644SOL    HW2 5525   2.171   2.591   0.968
 1645SOL     OW 5526   2.172   2.383   0.945
 1645SOL    HW1 5527   2.151   2.291   0.963
 1645SOL    HW2 5528   2.263   2.381   0.916
 1646SOL     OW 5529   2.990   2.254   1.682
 1646SOL    HW1 5530   2.954   2.310   1.751
 1646SOL    HW2 5531   3.082   2.282   1.674
 1647SOL     OW 5532   3.076   2.077   1.513
 1647SOL    HW1 5533   3.031   2.141   1.568
 1647SOL    HW2 5534   3.050   2.099   1.424
 1648SOL     OW 5535   1.867   3.191   0.199
 1648SOL    HW1 5536   1.779   3.203   0.164
 1648SOL    HW2 5537   1.873   3.098   0.219
 1649SOL     OW 5538   1.949   3.666   0.909
 1649SOL    HW1 5539   1.916   3.578   0.891
 1649SOL    HW2 5540   2.044   3.660   0.893
 1650SOL     OW 5541   2.362   3.436   0.893
 1650SOL    HW1 5542   2.433   3.497   0.914
 1650SOL    HW2 5543   2.406   3.356   0.866
 1651SOL     OW 5544   1.875   2.390   1.101
 1651SOL    HW1 5545   1.957   2.380   1.053
 1651SOL    HW2 5546   1.903   2.408   1.191
 1652SOL     OW 5547   2.053   2.380   1.725
 1652SOL    HW1 5548   2.101   2.338   1.654
 1652SOL    HW2 5549   1.998   2.445   1.681
 1653SOL     OW 5550   3.244   2.805   1.655
 1653SOL    HW1 5551   3.260   2.898   1.674
 1653SOL    HW2 5552   3.219   2.805   1.562
 1654SOL     OW 5553   2.676   2.432   0.345
 1654SOL    HW1 5554   2.680   2.354   0.289
 1654SOL    HW2 5555   2.594   2.474   0.322
 1655SOL     OW 5556   2.103   3.416   1.737
 1655SOL    HW1 5557   2.085   3.474   1.811
 1655SOL    HW2 5558   2.106   3.328   1.775
 1656SOL     OW 5559   2.332   2.356   0.199
 1656SOL    HW1 5560   2.388   2.434   0.202
 1656SOL    HW2 5561   2.243   2.391   0.190
 1657SOL     OW 5562   2.009   2.990   1.477
 1657SOL    HW1 5563   2.033   2.933   1.550
 1657SOL    HW2 5564   2.036   2.943   1.399
 1658SOL     OW 5565   3.168   2.710   0.311
 1658SOL    HW1 5566   3.083   2.689   0.350
 1658SOL    HW2 5567   3.153   2.707   0.217
 1659SOL     OW 5568   2.545   3.523   1.727
 1659SOL    HW1 5569   2.490   3.601   1.726
 1659SOL    HW2 5570   2.593   3.526   1.645
 1660SOL     OW 5571   2.768   1.953   0.129
 1660SOL    HW1 5572   2.816   1.940   0.047
 1660SOL    HW2 5573   2.817   1.903   0.194
 1661SOL     OW 5574   3.580   1.999   0.517
 1661SOL    HW1 5575   3.655   1.985   0.459
 1661SOL    HW2 5576   3.564   1.914   0.557
 1662SOL     OW 5577   3.251   3.431   0.479
 1662SOL    HW1 5578   3.312   3.457   0.410
 1662SOL    HW2 5579   3.209   3.512   0.506
 1663SOL     OW 5580   1.992   3.662   1.846
 1663SOL    HW1 5581   1.948   3.593   1.896
 1663SOL    HW2 5582   2.049   3.705   1.910
 1664SOL     OW 5583   3.138   2.785   0.671
 1664SOL    HW1 5584   3.209   2.721   0.671
 1664SOL    HW2 5585   3.171   2.858   0.619
 1665SOL     OW 5586   2.537   3.474   0.161
 1665SOL    HW1 5587   2.532   3.494   0.067
 1665SOL    HW2 5588   2.486   3.394   0.171
 1666SOL     OW 5589   3.716   2.052   0.922
 1666SOL    HW1 5590   3.745   1.961   0.921
 1666SOL    HW2 5591   3.621   2.047   0.921
 1667SOL     OW 5592   2.129   2.181   0.718
 1667SOL    HW1 5593   2.048   2.222   0.688
 1667SOL    HW2 5594   2.118   2.172   0.813
 1668SOL     OW 5595   3.049   3.477   0.053
 1668SOL    HW1 5596   3.053   3.384   0.076
 1668SOL    HW2 5597   3.023   3.478  -0.039
 1669SOL     OW 5598   2.778   2.773   0.290
 1669SOL    HW1 5599   2.839   2.807   0.225
 1669SOL    HW2 5600   2.824   2.697   0.328
 1670SOL     OW 5601   3.366   3.482   0.044
 1670SOL    HW1 5602   3.272   3.494   0.037
 1670SOL    HW2 5603   3.398   3.495  -0.046
 1671SOL     OW 5604   2.183   3.194   1.531
 1671SOL    HW1 5605   2.218   3.241   1.455
 1671SOL    HW2 5606   2.139   3.118   1.493
 1672SOL     OW 5607   2.906   2.963   0.702
 1672SOL    HW1 5608   2.835   2.912   0.742
 1672SOL    HW2 5609   2.962   2.898   0.660
 1673SOL     OW 5610   2.459   3.351   0.485
 1673SOL    HW1 5611   2.494   3.298   0.414
 1673SOL    HW2 5612   2.403   3.415   0.442
 1674SOL     OW 5613   2.122   3.212   0.288
 1674SOL    HW1 5614   2.030   3.207   0.261
 1674SOL    HW2 5615   2.120   3.251   0.375
 1675SOL     OW 5616   1.971   2.870   1.723
 1675SOL    HW1 5617   1.897   2.848   1.779
 1675SOL    HW2 5618   2.048   2.840   1.773
 1676SOL     OW 5619   2.548   2.031   1.511
 1676SOL    HW1 5620   2.620   2.063   1.456
 1676SOL    HW2 5621   2.559   2.076   1.594
 1677SOL     OW 5622   1.930   2.204   0.037
 1677SOL    HW1 5623   1.840   2.187   0.010
 1677SOL    HW2 5624   1.955   2.283  -0.012
 1678SOL     OW 5625   1.934   2.023   0.317
 1678SOL    HW1 5626   1.920   2.103   0.266
 1678SOL    HW2 5627   2.020   1.991   0.287
 1679SOL     OW 5628   3.047   3.212   0.119
 1679SOL    HW1 5629   2.956   3.183   0.116
 1679SOL    HW2 5630   3.072   3.202   0.211
 1680SOL     OW 5631   3.359   3.625   0.925
 1680SOL    HW1 5632   3.397   3.697   0.876
 1680SOL    HW2 5633   3.411   3.619   1.005
 1681SOL     OW 5634   2.569   2.428   1.712
 1681SOL    HW1 5635   2.608   2.493   1.771
 1681SOL    HW2 5636   2.628   2.353   1.716
 1682SOL     OW 5637   3.330   3.071   1.637
 1682SOL    HW1 5638   3.321   3.080   1.732
 1682SOL    HW2 5639   3.424   3.077   1.621
 1683SOL     OW 5640   2.246   3.603   1.597
 1683SOL    HW1 5641   2.158   3.633   1.578
 1683SOL    HW2 5642   2.237   3.509   1.613
 1684SOL     OW 5643   3.084   2.183   0.455
 1684SOL    HW1 5644   3.148   2.113   0.445
 1684SOL    HW2 5645   3.111   2.230   0.533
 1685SOL     OW 5646   2.454   2.607   0.663
 1685SOL    HW1 5647   2.497   2.690   0.640
 1685SOL    HW2 5648   2.379   2.602   0.604
 1686SOL     OW 5649   3.623   2.220   1.629
 1686SOL    HW1 5650   3.599   2.237   1.538
 1686SOL    HW2 5651   3.553   2.164   1.662
 1687SOL     OW 5652   2.769   3.239   0.041
 1687SOL    HW1 5653   2.695   3.240   0.102
 1687SOL    HW2 5654   2.760   3.320  -0.009
 1688SOL     OW 5655   2.524   3.656   0.906
 1688SOL    HW1 5656   2.494   3.746   0.920
 1688SOL    HW2 5657   2.614   3.655   0.937
 1689SOL     OW 5658   2.723   2.823   0.863
 1689SOL    HW1 5659   2.767   2.754   0.912
 1689SOL    HW2 5660   2.698   2.887   0.929
 1690SOL     OW 5661   2.959   2.864   0.100
 1690SOL    HW1 5662   2.909   2.877   0.019
 1690SOL    HW2 5663   3.027   2.801   0.077
 1691SOL     OW 5664   3.719   3.424   0.850
 1691SOL    HW1 5665   3.647   3.415   0.788
 1691SOL    HW2 5666   3.716   3.344   0.903
 1692SOL     OW 5667   2.087   3.170   1.855
 1692SOL    HW1 5668   2.019   3.109   1.828
 1692SOL    HW2 5669   2.072   3.182   1.949
 1693SOL     OW 5670   1.944   3.101   0.660
 1693SOL    HW1 5671   1.945   3.048   0.739
 1693SOL    HW2 5672   2.017   3.067   0.608
 1694SOL     OW 5673   2.525   3.260   1.611
 1694SOL    HW1 5674   2.458   3.213   1.662
 1694SOL    HW2 5675   2.535   3.343   1.657
 1695SOL     OW 5676   2.293   2.292   0.524
 1695SOL    HW1 5677   2.318   2.221   0.465
 1695SOL    HW2 5678   2.248   2.249   0.596
 1696SOL     OW 5679   2.685   3.440   0.681
 1696SOL    HW1 5680   2.688   3.468   0.590
 1696SOL    HW2 5681   2.602   3.393   0.689
 1697SOL     OW 5682   2.630   3.193   0.304
 1697SOL    HW1 5683   2.594   3.105   0.317
 1697SOL    HW2 5684   2.716   3.190   0.345
 1698SOL     OW 5685   3.214   1.915   0.166
 1698SOL    HW1 5686   3.240   1.871   0.086
 1698SOL    HW2 5687   3.128   1.877   0.187
 1699SOL     OW 5688   3.164   2.324   0.684
 1699SOL    HW1 5689   3.103   2.397   0.696
 1699SOL    HW2 5690   3.165   2.279   0.769
 1700SOL     OW 5691   3.447   2.077   0.887
 1700SOL    HW1 5692   3.359   2.089   0.922
 1700SOL    HW2 5693   3.459   2.150   0.826
 1701SOL     OW 5694   1.902   2.937   0.303
 1701SOL    HW1 5695   1.997   2.931   0.296
 1701SOL    HW2 5696   1.873   2.851   0.333
 1702SOL     OW 5697   2.739   3.508   0.347
 1702SOL    HW1 5698   2.669   3.487   0.286
 1702SOL    HW2 5699   2.707   3.584   0.395
 1703SOL     OW 5700   2.093   2.489   1.980
 1703SOL    HW1 5701   2.002   2.487   2.011
 1703SOL    HW2 5702   2.088   2.455   1.890
 1704SOL     OW 5703   2.086   2.138   2.852
 1704SOL    HW1 5704   2.116   2.114   2.939
 1704SOL    HW2 5705   1.998   2.102   2.846
 1705SOL     OW 5706   1.872   2.242   2.501
 1705SOL    HW1 5707   1.790   2.265   2.545
 1705SOL    HW2 5708   1.851   2.162   2.452
 1706SOL     OW 5709   2.429   3.138   3.030
 1706SOL    HW1 5710   2.341   3.139   2.993
 1706SOL    HW2 5711   2.441   3.225   3.067
 1707SOL     OW 5712   3.416   3.374   2.569
 1707SOL    HW1 5713   3.367   3.359   2.650
 1707SOL    HW2 5714   3.348   3.383   2.501
 1708SOL     OW 5715   2.991   2.563   2.572
 1708SOL    HW1 5716   3.045   2.640   2.555
 1708SOL    HW2 5717   2.943   2.584   2.652
 1709SOL     OW 5718   2.627   3.008   2.894
 1709SOL    HW1 5719   2.554   3.036   2.949
 1709SOL    HW2 5720   2.657   3.088   2.850
 1710SOL     OW 5721   2.549   2.875   2.517
 1710SOL    HW1 5722   2.611   2.856   2.588
 1710SOL    HW2 5723   2.478   2.923   2.560
 1711SOL     OW 5724   2.194   3.297   2.929
 1711SOL    HW1 5725   2.123   3.262   2.875
 1711SOL    HW2 5726   2.248   3.347   2.868
 1712SOL     OW 5727   3.328   3.362   3.201
 1712SOL    HW1 5728   3.358   3.450   3.220
 1712SOL    HW2 5729   3.290   3.331   3.284
 1713SOL     OW 5730   2.306   2.259   3.353
 1713SOL    HW1 5731   2.380   2.198   3.360
 1713SOL    HW2 5732   2.228   2.204   3.364
 1714SOL     OW 5733   3.472   2.311   2.603
 1714SOL    HW1 5734   3.402   2.344   2.546
 1714SOL    HW2 5735   3.505   2.389   2.649
 1715SOL     OW 5736   2.085   3.574   2.340
 1715SOL    HW1 5737   2.115   3.650   2.391
 1715SOL    HW2 5738   2.145   3.570   2.265
 1716SOL     OW 5739   2.090   3.299   2.396
 1716SOL    HW1 5740   2.072   3.392   2.404
 1716SOL    HW2 5741   2.025   3.256   2.451
 1717SOL     OW 5742   2.109   2.952   2.750
 1717SOL    HW1 5743   2.112   2.869   2.797
 1717SOL    HW2 5744   2.053   3.008   2.803
 1718SOL     OW 5745   2.482   3.649   3.299
 1718SOL    HW1 5746   2.396   3.635   3.339
 1718SOL    HW2 5747   2.503   3.741   3.318
 1719SOL     OW 5748   2.456   2.836   1.990
 1719SOL    HW1 5749   2.489   2.900   1.926
 1719SOL    HW2 5750   2.504   2.856   2.071
 1720SOL     OW 5751   3.455   1.979   3.343
 1720SOL    HW1 5752   3.447   2.050   3.279
 1720SOL    HW2 5753   3.451   2.022   3.428
 1721SOL     OW 5754   1.979   2.509   2.423
 1721SOL    HW1 5755   1.946   2.421   2.443
 1721SOL    HW2 5756   1.971   2.557   2.505
 1722SOL     OW 5757   3.705   3.631   2.216
 1722SOL    HW1 5758   3.764   3.601   2.285
 1722SOL    HW2 5759   3.738   3.718   2.192
 1723SOL     OW 5760   1.887   3.460   1.984
 1723SOL    HW1 5761   1.874   3.367   2.004
 1723SOL    HW2 5762   1.861   3.505   2.064
 1724SOL     OW 5763   3.556   2.785   2.504
 1724SOL    HW1 5764   3.637   2.739   2.483
 1724SOL    HW2 5765   3.530   2.826   2.422
 1725SOL     OW 5766   3.503   2.949   2.300
 1725SOL    HW1 5767   3.584   2.961   2.251
 1725SOL    HW2 5768   3.512   3.009   2.375
 1726SOL     OW 5769   1.980   2.598   3.449
 1726SOL    HW1 5770   2.069   2.609   3.481
 1726SOL    HW2 5771   1.945   2.687   3.444
 1727SOL     OW 5772   2.474   3.237   2.595
 1727SOL    HW1 5773   2.428   3.153   2.601
 1727SOL    HW2 5774   2.455   3.267   2.506
 1728SOL     OW 5775   3.160   3.099   3.297
 1728SOL    HW1 5776   3.189   3.032   3.234
 1728SOL    HW2 5777   3.212   3.081   3.376
 1729SOL     OW 5778   2.670   1.860   2.363
 1729SOL    HW1 5779   2.711   1.946   2.355
 1729SOL    HW2 5780   2.577   1.880   2.376
 1730SOL     OW 5781   2.057   2.836   3.124
 1730SOL    HW1 5782   2.140   2.789   3.112
 1730SOL    HW2 5783   1.990   2.773   3.100
 1731SOL     OW 5784   3.394   2.854   2.056
 1731SOL    HW1 5785   3.324   2.791   2.075
 1731SOL    HW2 5786   3.431   2.876   2.142
 1732SOL     OW 5787   3.326   3.281   2.816
 1732SOL    HW1 5788   3.261   3.291   2.885
 1732SOL    HW2 5789   3.315   3.192   2.785
 1733SOL     OW 5790   3.523   3.588   2.440
 1733SOL    HW1 5791   3.513   3.559   2.349
 1733SOL    HW2 5792   3.499   3.512   2.493
 1734SOL     OW 5793   2.456   2.587   2.126
 1734SOL    HW1 5794   2.474   2.663   2.070
 1734SOL    HW2 5795   2.390   2.618   2.188
 1735SOL     OW 5796   3.143   2.207   2.797
 1735SOL    HW1 5797   3.056   2.168   2.799
 1735SOL    HW2 5798   3.194   2.155   2.859
 1736SOL     OW 5799   2.664   2.472   3.318
 1736SOL    HW1 5800   2.628   2.459   3.406
 1736SOL    HW2 5801   2.613   2.413   3.262
 1737SOL     OW 5802   2.830   2.756   3.432
 1737SOL    HW1 5803   2.876   2.680   3.397
 1737SOL    HW2 5804   2.775   2.787   3.360
 1738SOL     OW 5805   2.853   2.273   3.105
 1738SOL    HW1 5806   2.772   2.303   3.147
 1738SOL    HW2 5807   2.824   2.226   3.027
 1739SOL     OW 5808   2.909   2.562   2.290
 1739SOL    HW1 5809   2.924   2.555   2.385
 1739SOL    HW2 5810   2.827   2.514   2.275
 1740SOL     OW 5811   1.947   2.680   2.638
 1740SOL    HW1 5812   2.033   2.669   2.679
 1740SOL    HW2 5813   1.912   2.760   2.675
 1741SOL     OW 5814   1.992   3.690   3.439
 1741SOL    HW1 5815   1.977   3.667   3.530
 1741SOL    HW2 5816   1.906   3.710   3.404
 1742SOL     OW 5817   2.736   2.207   2.056
 1742SOL    HW1 5818   2.788   2.267   2.002
 1742SOL    HW2 5819   2.758   2.120   2.023
 1743SOL     OW 5820   3.233   3.008   2.407
 1743SOL    HW1 5821   3.306   2.981   2.352
 1743SOL    HW2 5822   3.182   3.068   2.353
 1744SOL     OW 5823   2.409   2.051   2.751
 1744SOL    HW1 5824   2.411   2.069   2.845
 1744SOL    HW2 5825   2.415   2.138   2.711
 1745SOL     OW 5826   2.874   3.312   2.338
 1745SOL    HW1 5827   2.829   3.381   2.289
 1745SOL    HW2 5828   2.864   3.337   2.430
 1746SOL     OW 5829   2.214   3.665   2.714
 1746SOL    HW1 5830   2.262   3.582   2.725
 1746SOL    HW2 5831   2.282   3.732   2.723
 1747SOL     OW 5832   3.660   2.929   2.730
 1747SOL    HW1 5833   3.600   2.908   2.658
 1747SOL    HW2 5834   3.604   2.931   2.807
 1748SOL     OW 5835   3.094   3.400   3.353
 1748SOL    HW1 5836   3.092   3.323   3.410
 1748SOL    HW2 5837   3.029   3.381   3.285
 1749SOL     OW 5838   2.183   2.813   2.105
 1749SOL    HW1 5839   2.266   2.836   2.063
 1749SOL    HW2 5840   2.157   2.731   2.063
 1750SOL     OW 5841   3.329   2.598   2.590
 1750SOL    HW1 5842   3.320   2.544   2.669
 1750SOL    HW2 5843   3.406   2.652   2.607
 1751SOL     OW 5844   2.981   3.638   2.099
 1751SOL    HW1 5845   2.912   3.588   2.143
 1751SOL    HW2 5846   3.000   3.587   2.020
 1752SOL     OW 5847   2.065   2.139   3.352
 1752SOL    HW1 5848   1.991   2.197   3.335
 1752SOL    HW2 5849   2.046   2.099   3.436
 1753SOL     OW 5850   2.328   3.602   2.185
 1753SOL    HW1 5851   2.365   3.653   2.257
 1753SOL    HW2 5852   2.403   3.586   2.126
 1754SOL     OW 5853   3.259   1.969   2.291
 1754SOL    HW1 5854   3.246   1.943   2.200
 1754SOL    HW2 5855   3.353   1.982   2.299
 1755SOL     OW 5856   2.113   3.652   3.099
 1755SOL    HW1 5857   2.167   3.588   3.146
 1755SOL    HW2 5858   2.101   3.613   3.012
 1756SOL     OW 5859   2.802   3.560   2.765
 1756SOL    HW1 5860   2.877   3.504   2.782
 1756SOL    HW2 5861   2.754   3.515   2.696
 1757SOL     OW 5862   2.248   2.559   2.342
 1757SOL    HW1 5863   2.279   2.469   2.345
 1757SOL    HW2 5864   2.155   2.553   2.365
 1758SOL     OW 5865   2.482   1.988   1.974
 1758SOL    HW1 5866   2.569   1.948   1.980
 1758SOL    HW2 5867   2.446   1.956   1.892
 1759SOL     OW 5868   2.743   3.380   3.056
 1759SOL    HW1 5869   2.727   3.347   2.967
 1759SOL    HW2 5870   2.807   3.320   3.092
 1760SOL     OW 5871   3.204   2.451   3.302
 1760SOL    HW1 5872   3.246   2.421   3.383
 1760SOL    HW2 5873   3.240   2.538   3.287
 1761SOL     OW 5874   2.670   3.265   2.792
 1761SOL    HW1 5875   2.754   3.263   2.746
 1761SOL    HW2 5876   2.604   3.258   2.723
 1762SOL     OW 5877   2.786   2.369   2.765
 1762SOL    HW1 5878   2.763   2.359   2.673
 1762SOL    HW2 5879   2.826   2.285   2.789
 1763SOL     OW 5880   2.408   1.924   2.372
 1763SOL    HW1 5881   2.327   1.927   2.423
 1763SOL    HW2 5882   2.405   2.003   2.317
 1764SOL     OW 5883   3.289   3.050   1.897
 1764SOL    HW1 5884   3.324   2.984   1.957
 1764SOL    HW2 5885   3.208   3.080   1.939
 1765SOL     OW 5886   2.156   1.904   2.042
 1765SOL    HW1 5887   2.212   1.974   2.009
 1765SOL    HW2 5888   2.217   1.841   2.080
 1766SOL     OW 5889   2.796   2.101   2.334
 1766SOL    HW1 5890   2.762   2.144   2.255
 1766SOL    HW2 5891   2.891   2.108   2.326
 1767SOL     OW 5892   2.940   2.540   3.324
 1767SOL    HW1 5893   2.868   2.477   3.320
 1767SOL    HW2 5894   3.019   2.487   3.308
 1768SOL     OW 5895   3.087   3.432   2.655
 1768SOL    HW1 5896   3.110   3.501   2.593
 1768SOL    HW2 5897   3.155   3.438   2.723
 1769SOL     OW 5898   2.325   3.008   2.604
 1769SOL    HW1 5899   2.252   2.990   2.662
 1769SOL    HW2 5900   2.291   2.989   2.516
 1770SOL     OW 5901   3.135   3.659   2.461
 1770SOL    HW1 5902   3.175   3.721   2.400
 1770SOL    HW2 5903   3.076   3.711   2.515
 1771SOL     OW 5904   2.891   2.411   1.881
 1771SOL    HW1 5905   2.852   2.494   1.853
 1771SOL    HW2 5906   2.953   2.436   1.949
 1772SOL     OW 5907   1.938   2.414   3.254
 1772SOL    HW1 5908   2.027   2.416   3.220
 1772SOL    HW2 5909   1.934   2.487   3.316
 1773SOL     OW 5910   2.427   2.088   3.021
 1773SOL    HW1 5911   2.459   2.003   3.052
 1773SOL    HW2 5912   2.336   2.092   3.050
 1774SOL     OW 5913   2.731   2.319   2.503
 1774SOL    HW1 5914   2.690   2.378   2.439
 1774SOL    HW2 5915   2.750   2.240   2.454
 1775SOL     OW 5916   2.875   1.912   2.619
 1775SOL    HW1 5917   2.815   1.904   2.545
 1775SOL    HW2 5918   2.856   1.835   2.673
 1776SOL     OW 5919   3.294   3.029   2.723
 1776SOL    HW1 5920   3.233   2.955   2.718
 1776SOL    HW2 5921   3.316   3.048   2.632
 1777SOL     OW 5922   3.330   2.459   2.851
 1777SOL    HW1 5923   3.293   2.371   2.855
 1777SOL    HW2 5924   3.396   2.461   2.921
 1778SOL     OW 5925   3.680   2.670   2.278
 1778SOL    HW1 5926   3.755   2.619   2.312
 1778SOL    HW2 5927   3.699   2.681   2.185
 1779SOL     OW 5928   2.355   3.264   2.031
 1779SOL    HW1 5929   2.276   3.237   2.078
 1779SOL    HW2 5930   2.329   3.264   1.939
 1780SOL     OW 5931   3.527   3.127   2.527
 1780SOL    HW1 5932   3.622   3.137   2.536
 1780SOL    HW2 5933   3.491   3.213   2.548
 1781SOL     OW 5934   3.254   2.431   1.934
 1781SOL    HW1 5935   3.200   2.415   2.012
 1781SOL    HW2 5936   3.343   2.412   1.962
 1782SOL     OW 5937   2.388   2.123   2.188
 1782SOL    HW1 5938   2.421   2.069   2.116
 1782SOL    HW2 5939   2.380   2.211   2.151
 1783SOL     OW 5940   3.624   3.082   3.433
 1783SOL    HW1 5941   3.716   3.056   3.433
 1783SOL    HW2 5942   3.623   3.171   3.469
 1784SOL     OW 5943   2.929   3.215   3.201
 1784SOL    HW1 5944   2.852   3.183   3.248
 1784SOL    HW2 5945   3.003   3.170   3.244
 1785SOL     OW 5946   2.980   3.061   2.969
 1785SOL    HW1 5947   2.925   3.101   3.036
 1785SOL    HW2 5948   2.943   3.092   2.886
 1786SOL     OW 5949   3.498   2.964   2.940
 1786SOL    HW1 5950   3.495   3.030   3.010
 1786SOL    HW2 5951   3.414   2.973   2.895
 1787SOL     OW 5952   2.779   1.960   3.268
 1787SOL    HW1 5953   2.798   1.937   3.177
 1787SOL    HW2 5954   2.859   2.003   3.299
 1788SOL     OW 5955   2.568   2.918   2.234
 1788SOL    HW1 5956   2.557   2.910   2.329
 1788SOL    HW2 5957   2.646   2.866   2.214
 1789SOL     OW 5958   2.276   2.674   3.112
 1789SOL    HW1 5959   2.348   2.685   3.175
 1789SOL    HW2 5960   2.238   2.589   3.134
 1790SOL     OW 5961   3.133   2.242   3.132
 1790SOL    HW1 5962   3.160   2.321   3.180
 1790SOL    HW2 5963   3.048   2.265   3.096
 1791SOL     OW 5964   1.928   3.434   3.197
 1791SOL    HW1 5965   1.893   3.512   3.153
 1791SOL    HW2 5966   2.023   3.448   3.199
 1792SOL     OW 5967   2.221   2.964   2.358
 1792SOL    HW1 5968   2.223   3.039   2.299
 1792SOL    HW2 5969   2.225   2.888   2.301
 1793SOL     OW 5970   2.423   2.400   2.725
 1793SOL    HW1 5971   2.440   2.460   2.652
 1793SOL    HW2 5972   2.477   2.433   2.797
 1794SOL     OW 5973   3.111   3.209   2.254
 1794SOL    HW1 5974   3.161   3.284   2.286
 1794SOL    HW2 5975   3.022   3.225   2.285
 1795SOL     OW 5976   3.133   3.314   3.006
 1795SOL    HW1 5977   3.185   3.318   3.086
 1795SOL    HW2 5978   3.079   3.236   3.016
 1796SOL     OW 5979   3.444   2.500   2.332
 1796SOL    HW1 5980   3.408   2.555   2.401
 1796SOL    HW2 5981   3.500   2.558   2.280
 1797SOL     OW 5982   2.213   3.379   3.186
 1797SOL    HW1 5983   2.197   3.336   3.102
 1797SOL    HW2 5984   2.307   3.395   3.188
 1798SOL     OW 5985   2.264   2.611   3.463
 1798SOL    HW1 5986   2.328   2.662   3.414
 1798SOL    HW2 5987   2.310   2.529   3.483
 1799SOL     OW 5988   3.454   2.629   3.527
 1799SOL    HW1 5989   3.375   2.683   3.536
 1799SOL    HW2 5990   3.514   2.684   3.476
 1800SOL     OW 5991   2.442   2.732   2.893
 1800SOL    HW1 5992   2.474   2.822   2.886
 1800SOL    HW2 5993   2.382   2.733   2.968
 1801SOL     OW 5994   3.224   2.723   2.903
 1801SOL    HW1 5995   3.148   2.719   2.844
 1801SOL    HW2 5996   3.257   2.633   2.905
 1802SOL     OW 5997   3.073   2.391   2.135
 1802SOL    HW1 5998   3.079   2.311   2.188
 1802SOL    HW2 5999   3.035   2.456   2.194
 1803SOL     OW 6000   2.168   2.068   3.102
 1803SOL    HW1 6001   2.135   2.101   3.186
 1803SOL    HW2 6002   2.142   1.976   3.101
 1804SOL     OW 6003   1.909   3.171   3.139
 1804SOL    HW1 6004   1.943   3.123   3.215
 1804SOL    HW2 6005   1.916   3.263   3.163
 1805SOL     OW 6006   2.592   2.496   2.926
 1805SOL    HW1 6007   2.657   2.475   2.859
 1805SOL    HW2 6008   2.564   2.585   2.904
 1806SOL     OW 6009   2.163   1.929   2.484
 1806SOL    HW1 6010   2.150   2.019   2.514
 1806SOL    HW2 6011   2.165   1.877   2.564
 1807SOL     OW 6012   2.886   2.625   2.827
 1807SOL    HW1 6013   2.894   2.642   2.920
 1807SOL    HW2 6014   2.860   2.533   2.821
 1808SOL     OW 6015   3.725   3.351   3.445
 1808SOL    HW1 6016   3.739   3.395   3.362
 1808SOL    HW2 6017   3.772   3.404   3.509
 1809SOL     OW 6018   3.162   2.692   1.899
 1809SOL    HW1 6019   3.201   2.605   1.903
 1809SOL    HW2 6020   3.189   2.727   1.814
 1810SOL     OW 6021   2.927   3.196   2.713
 1810SOL    HW1 6022   2.932   3.121   2.653
 1810SOL    HW2 6023   2.991   3.258   2.677
 1811SOL     OW 6024   2.176   2.674   2.812
 1811SOL    HW1 6025   2.269   2.697   2.809
 1811SOL    HW2 6026   2.174   2.588   2.852
 1812SOL     OW 6027   2.198   2.378   2.870
 1812SOL    HW1 6028   2.159   2.293   2.852
 1812SOL    HW2 6029   2.273   2.383   2.810
 1813SOL     OW 6030   3.011   2.077   3.339
 1813SOL    HW1 6031   3.031   2.138   3.410
 1813SOL    HW2 6032   3.052   2.116   3.262
 1814SOL     OW 6033   1.867   3.188   2.059
 1814SOL    HW1 6034   1.779   3.200   2.023
 1814SOL    HW2 6035   1.869   3.096   2.085
 1815SOL     OW 6036   1.952   3.657   2.794
 1815SOL    HW1 6037   1.918   3.576   2.757
 1815SOL    HW2 6038   2.041   3.664   2.762
 1816SOL     OW 6039   2.364   3.434   2.766
 1816SOL    HW1 6040   2.434   3.497   2.788
 1816SOL    HW2 6041   2.409   3.362   2.722
 1817SOL     OW 6042   2.858   2.659   3.094
 1817SOL    HW1 6043   2.902   2.630   3.173
 1817SOL    HW2 6044   2.768   2.627   3.103
 1818SOL     OW 6045   1.899   2.403   2.978
 1818SOL    HW1 6046   1.982   2.381   2.935
 1818SOL    HW2 6047   1.922   2.415   3.070
 1819SOL     OW 6048   2.676   2.430   2.207
 1819SOL    HW1 6049   2.680   2.354   2.149
 1819SOL    HW2 6050   2.597   2.476   2.180
 1820SOL     OW 6051   3.507   2.462   3.057
 1820SOL    HW1 6052   3.492   2.400   3.128
 1820SOL    HW2 6053   3.593   2.438   3.023
 1821SOL     OW 6054   2.145   3.417   0.059
 1821SOL    HW1 6055   2.087   3.476   0.107
 1821SOL    HW2 6056   2.111   3.330   0.076
 1822SOL     OW 6057   2.547   2.320   3.129
 1822SOL    HW1 6058   2.502   2.243   3.095
 1822SOL    HW2 6059   2.553   2.379   3.054
 1823SOL     OW 6060   2.801   3.537   3.330
 1823SOL    HW1 6061   2.769   3.513   3.243
 1823SOL    HW2 6062   2.808   3.632   3.328
 1824SOL     OW 6063   2.333   2.357   2.052
 1824SOL    HW1 6064   2.389   2.433   2.066
 1824SOL    HW2 6065   2.244   2.393   2.050
 1825SOL     OW 6066   2.019   3.001   3.330
 1825SOL    HW1 6067   2.029   2.941   3.404
 1825SOL    HW2 6068   2.031   2.945   3.253
 1826SOL     OW 6069   3.198   2.916   3.093
 1826SOL    HW1 6070   3.225   2.856   3.024
 1826SOL    HW2 6071   3.120   2.959   3.059
 1827SOL     OW 6072   3.166   2.716   2.172
 1827SOL    HW1 6073   3.085   2.688   2.213
 1827SOL    HW2 6074   3.150   2.706   2.078
 1828SOL     OW 6075   3.623   3.612   3.012
 1828SOL    HW1 6076   3.684   3.636   2.942
 1828SOL    HW2 6077   3.599   3.521   2.993
 1829SOL     OW 6078   3.107   3.594   2.985
 1829SOL    HW1 6079   3.189   3.605   2.936
 1829SOL    HW2 6080   3.102   3.500   3.002
 1830SOL     OW 6081   1.945   3.125   2.879
 1830SOL    HW1 6082   1.935   3.131   2.974
 1830SOL    HW2 6083   1.868   3.076   2.849
 1831SOL     OW 6084   3.595   1.994   2.398
 1831SOL    HW1 6085   3.649   1.976   2.321
 1831SOL    HW2 6086   3.565   1.907   2.426
 1832SOL     OW 6087   3.257   3.433   2.342
 1832SOL    HW1 6088   3.304   3.453   2.261
 1832SOL    HW2 6089   3.211   3.514   2.363
 1833SOL     OW 6090   3.139   2.785   2.533
 1833SOL    HW1 6091   3.210   2.720   2.535
 1833SOL    HW2 6092   3.174   2.857   2.481
 1834SOL     OW 6093   2.688   3.132   3.290
 1834SOL    HW1 6094   2.674   3.165   3.379
 1834SOL    HW2 6095   2.608   3.156   3.243
 1835SOL     OW 6096   2.533   3.477   2.018
 1835SOL    HW1 6097   2.543   3.486   1.923
 1835SOL    HW2 6098   2.488   3.393   2.029
 1836SOL     OW 6099   3.502   3.584   3.262
 1836SOL    HW1 6100   3.548   3.593   3.179
 1836SOL    HW2 6101   3.486   3.674   3.290
 1837SOL     OW 6102   3.702   2.035   2.830
 1837SOL    HW1 6103   3.732   1.952   2.794
 1837SOL    HW2 6104   3.614   2.047   2.793
 1838SOL     OW 6105   2.130   2.183   2.583
 1838SOL    HW1 6106   2.048   2.222   2.553
 1838SOL    HW2 6107   2.118   2.172   2.677
 1839SOL     OW 6108   3.051   3.475   1.898
 1839SOL    HW1 6109   3.063   3.382   1.918
 1839SOL    HW2 6110   2.999   3.476   1.818
 1840SOL     OW 6111   2.684   2.867   3.231
 1840SOL    HW1 6112   2.726   2.867   3.145
 1840SOL    HW2 6113   2.690   2.958   3.261
 1841SOL     OW 6114   2.778   2.772   2.152
 1841SOL    HW1 6115   2.839   2.804   2.086
 1841SOL    HW2 6116   2.821   2.697   2.192
 1842SOL     OW 6117   2.234   3.161   3.368
 1842SOL    HW1 6118   2.222   3.238   3.312
 1842SOL    HW2 6119   2.160   3.104   3.346
 1843SOL     OW 6120   3.475   3.147   3.146
 1843SOL    HW1 6121   3.532   3.144   3.223
 1843SOL    HW2 6122   3.415   3.219   3.164
 1844SOL     OW 6123   2.905   2.963   2.564
 1844SOL    HW1 6124   2.836   2.912   2.606
 1844SOL    HW2 6125   2.962   2.898   2.524
 1845SOL     OW 6126   2.879   2.101   2.829
 1845SOL    HW1 6127   2.872   2.055   2.745
 1845SOL    HW2 6128   2.874   2.031   2.894
 1846SOL     OW 6129   2.459   3.352   2.348
 1846SOL    HW1 6130   2.495   3.297   2.278
 1846SOL    HW2 6131   2.403   3.415   2.303
 1847SOL     OW 6132   3.572   2.249   3.242
 1847SOL    HW1 6133   3.643   2.312   3.248
 1847SOL    HW2 6134   3.607   2.179   3.186
 1848SOL     OW 6135   2.118   3.213   2.147
 1848SOL    HW1 6136   2.024   3.210   2.128
 1848SOL    HW2 6137   2.124   3.250   2.235
 1849SOL     OW 6138   1.976   2.861   0.026
 1849SOL    HW1 6139   1.897   2.854   0.080
 1849SOL    HW2 6140   2.048   2.853   0.088
 1850SOL     OW 6141   2.532   2.055   3.361
 1850SOL    HW1 6142   2.614   2.044   3.314
 1850SOL    HW2 6143   2.557   2.085   3.448
 1851SOL     OW 6144   1.937   2.205   1.898
 1851SOL    HW1 6145   1.851   2.180   1.864
 1851SOL    HW2 6146   1.964   2.278   1.843
 1852SOL     OW 6147   3.295   2.713   3.263
 1852SOL    HW1 6148   3.248   2.775   3.207
 1852SOL    HW2 6149   3.387   2.725   3.240
 1853SOL     OW 6150   1.934   2.023   2.178
 1853SOL    HW1 6151   1.919   2.103   2.127
 1853SOL    HW2 6152   2.020   1.992   2.151
 1854SOL     OW 6153   3.045   3.203   1.980
 1854SOL    HW1 6154   2.952   3.180   1.984
 1854SOL    HW2 6155   3.074   3.204   2.071
 1855SOL     OW 6156   2.477   2.698   3.292
 1855SOL    HW1 6157   2.532   2.775   3.278
 1855SOL    HW2 6158   2.539   2.625   3.300
 1856SOL     OW 6159   3.350   3.633   2.829
 1856SOL    HW1 6160   3.383   3.689   2.759
 1856SOL    HW2 6161   3.425   3.623   2.888
 1857SOL     OW 6162   2.583   2.430   0.018
 1857SOL    HW1 6163   2.594   2.490   0.092
 1857SOL    HW2 6164   2.632   2.352   0.043
 1858SOL     OW 6165   2.251   3.601   3.421
 1858SOL    HW1 6166   2.165   3.644   3.418
 1858SOL    HW2 6167   2.234   3.517   3.464
 1859SOL     OW 6168   3.536   2.745   3.118
 1859SOL    HW1 6169   3.520   2.660   3.077
 1859SOL    HW2 6170   3.530   2.808   3.046
 1860SOL     OW 6171   3.084   2.184   2.317
 1860SOL    HW1 6172   3.148   2.113   2.307
 1860SOL    HW2 6173   3.111   2.231   2.395
 1861SOL     OW 6174   2.455   2.606   2.523
 1861SOL    HW1 6175   2.497   2.689   2.504
 1861SOL    HW2 6176   2.379   2.603   2.464
 1862SOL     OW 6177   3.606   2.796   3.376
 1862SOL    HW1 6178   3.612   2.890   3.390
 1862SOL    HW2 6179   3.588   2.786   3.282
 1863SOL     OW 6180   2.721   3.233   1.885
 1863SOL    HW1 6181   2.682   3.259   1.969
 1863SOL    HW2 6182   2.751   3.315   1.846
 1864SOL     OW 6183   2.520   3.657   2.817
 1864SOL    HW1 6184   2.492   3.745   2.791
 1864SOL    HW2 6185   2.615   3.657   2.804
 1865SOL     OW 6186   2.724   2.822   2.720
 1865SOL    HW1 6187   2.776   2.755   2.764
 1865SOL    HW2 6188   2.695   2.880   2.791
 1866SOL     OW 6189   2.941   2.846   1.950
 1866SOL    HW1 6190   2.922   2.899   1.873
 1866SOL    HW2 6191   3.021   2.797   1.927
 1867SOL     OW 6192   3.723   3.423   2.708
 1867SOL    HW1 6193   3.647   3.413   2.652
 1867SOL    HW2 6194   3.714   3.353   2.773
 1868SOL     OW 6195   1.944   3.101   2.521
 1868SOL    HW1 6196   1.944   3.051   2.602
 1868SOL    HW2 6197   2.017   3.065   2.470
 1869SOL     OW 6198   2.514   3.256   3.466
 1869SOL    HW1 6199   2.452   3.203   3.516
 1869SOL    HW2 6200   2.516   3.339   3.512
 1870SOL     OW 6201   3.680   2.050   3.098
 1870SOL    HW1 6202   3.685   1.957   3.120
 1870SOL    HW2 6203   3.688   2.053   3.003
 1871SOL     OW 6204   2.291   2.292   2.383
 1871SOL    HW1 6205   2.318   2.220   2.327
 1871SOL    HW2 6206   2.249   2.250   2.458
 1872SOL     OW 6207   3.565   3.355   2.967
 1872SOL    HW1 6208   3.482   3.323   2.931
 1872SOL    HW2 6209   3.586   3.292   3.036
 1873SOL     OW 6210   2.184   2.410   3.148
 1873SOL    HW1 6211   2.235   2.355   3.207
 1873SOL    HW2 6212   2.213   2.385   3.061
 1874SOL     OW 6213   2.682   3.441   2.546
 1874SOL    HW1 6214   2.692   3.469   2.455
 1874SOL    HW2 6215   2.601   3.390   2.547
 1875SOL     OW 6216   3.291   2.081   2.979
 1875SOL    HW1 6217   3.331   2.011   3.031
 1875SOL    HW2 6218   3.241   2.132   3.042
 1876SOL     OW 6219   2.866   1.888   3.014
 1876SOL    HW1 6220   2.812   1.818   2.977
 1876SOL    HW2 6221   2.955   1.852   3.013
 1877SOL     OW 6222   2.631   3.194   2.170
 1877SOL    HW1 6223   2.594   3.106   2.176
 1877SOL    HW2 6224   2.718   3.188   2.210
 1878SOL     OW 6225   2.481   3.426   3.144
 1878SOL    HW1 6226   2.484   3.505   3.198
 1878SOL    HW2 6227   2.568   3.420   3.105
 1879SOL     OW 6228   3.211   1.912   2.027
 1879SOL    HW1 6229   3.235   1.866   1.947
 1879SOL    HW2 6230   3.124   1.878   2.050
 1880SOL     OW 6231   3.158   2.318   2.549
 1880SOL    HW1 6232   3.105   2.397   2.559
 1880SOL    HW2 6233   3.164   2.281   2.637
 1881SOL     OW 6234   3.452   2.074   2.742
 1881SOL    HW1 6235   3.377   2.086   2.800
 1881SOL    HW2 6236   3.453   2.152   2.687
 1882SOL     OW 6237   1.904   2.938   2.164
 1882SOL    HW1 6238   1.998   2.927   2.151
 1882SOL    HW2 6239   1.873   2.851   2.189
 1883SOL     OW 6240   2.737   3.505   2.210
 1883SOL    HW1 6241   2.668   3.487   2.145
 1883SOL    HW2 6242   2.707   3.585   2.254
 1884SOL     OW 6243   2.094   4.341   0.130
 1884SOL    HW1 6244   2.001   4.348   0.153
 1884SOL    HW2 6245   2.094   4.319   0.037
 1885SOL     OW 6246   1.871   4.107   0.633
 1885SOL    HW1 6247   1.793   4.124   0.686
 1885SOL    HW2 6248   1.855   4.022   0.592
 1886SOL     OW 6249   2.429   4.999   1.169
 1886SOL    HW1 6250   2.341   5.001   1.130
 1886SOL    HW2 6251   2.441   5.087   1.204
 1887SOL     OW 6252   3.419   5.238   0.702
 1887SOL    HW1 6253   3.368   5.222   0.780
 1887SOL    HW2 6254   3.354   5.249   0.632
 1888SOL     OW 6255   2.993   4.424   0.711
 1888SOL    HW1 6256   3.045   4.503   0.693
 1888SOL    HW2 6257   2.943   4.446   0.789
 1889SOL     OW 6258   3.628   4.329   0.228
 1889SOL    HW1 6259   3.593   4.326   0.139
 1889SOL    HW2 6260   3.589   4.254   0.272
 1890SOL     OW 6261   2.626   4.869   1.032
 1890SOL    HW1 6262   2.553   4.899   1.086
 1890SOL    HW2 6263   2.657   4.948   0.988
 1891SOL     OW 6264   2.717   4.516   1.821
 1891SOL    HW1 6265   2.709   4.588   1.883
 1891SOL    HW2 6266   2.740   4.557   1.738
 1892SOL     OW 6267   2.548   4.736   0.655
 1892SOL    HW1 6268   2.611   4.718   0.726
 1892SOL    HW2 6269   2.478   4.785   0.698
 1893SOL     OW 6270   2.562   4.879   1.803
 1893SOL    HW1 6271   2.610   4.959   1.825
 1893SOL    HW2 6272   2.477   4.910   1.772
 1894SOL     OW 6273   2.194   5.155   1.068
 1894SOL    HW1 6274   2.122   5.126   1.012
 1894SOL    HW2 6275   2.249   5.208   1.010
 1895SOL     OW 6276   3.328   5.226   1.346
 1895SOL    HW1 6277   3.339   5.319   1.363
 1895SOL    HW2 6278   3.291   5.191   1.428
 1896SOL     OW 6279   2.308   4.126   1.516
 1896SOL    HW1 6280   2.378   4.060   1.511
 1896SOL    HW2 6281   2.228   4.076   1.502
 1897SOL     OW 6282   3.468   4.173   0.741
 1897SOL    HW1 6283   3.398   4.208   0.687
 1897SOL    HW2 6284   3.509   4.250   0.781
 1898SOL     OW 6285   2.993   5.065   1.689
 1898SOL    HW1 6286   3.035   5.063   1.775
 1898SOL    HW2 6287   2.941   4.985   1.686
 1899SOL     OW 6288   2.084   5.165   0.530
 1899SOL    HW1 6289   2.068   5.257   0.555
 1899SOL    HW2 6290   2.026   5.115   0.588
 1900SOL     OW 6291   2.108   4.813   0.886
 1900SOL    HW1 6292   2.112   4.731   0.935
 1900SOL    HW2 6293   2.053   4.870   0.940
 1901SOL     OW 6294   2.458   4.694   0.135
 1901SOL    HW1 6295   2.478   4.760   0.069
 1901SOL    HW2 6296   2.511   4.719   0.211
 1902SOL     OW 6297   1.979   4.372   0.561
 1902SOL    HW1 6298   1.946   4.283   0.579
 1902SOL    HW2 6299   1.971   4.417   0.645
 1903SOL     OW 6300   1.882   5.335   0.144
 1903SOL    HW1 6301   1.866   5.241   0.156
 1903SOL    HW2 6302   1.853   5.375   0.226
 1904SOL     OW 6303   3.552   4.643   0.629
 1904SOL    HW1 6304   3.642   4.611   0.617
 1904SOL    HW2 6305   3.535   4.696   0.551
 1905SOL     OW 6306   3.507   4.830   0.434
 1905SOL    HW1 6307   3.587   4.845   0.384
 1905SOL    HW2 6308   3.514   4.891   0.508
 1906SOL     OW 6309   1.982   4.473   1.594
 1906SOL    HW1 6310   2.071   4.475   1.631
 1906SOL    HW2 6311   1.954   4.565   1.596
 1907SOL     OW 6312   2.471   5.099   0.734
 1907SOL    HW1 6313   2.426   5.015   0.739
 1907SOL    HW2 6314   2.455   5.129   0.644
 1908SOL     OW 6315   3.154   4.961   1.425
 1908SOL    HW1 6316   3.189   4.892   1.368
 1908SOL    HW2 6317   3.206   4.954   1.505
 1909SOL     OW 6318   2.670   3.723   0.498
 1909SOL    HW1 6319   2.710   3.810   0.494
 1909SOL    HW2 6320   2.577   3.740   0.514
 1910SOL     OW 6321   2.057   4.697   1.266
 1910SOL    HW1 6322   2.140   4.653   1.248
 1910SOL    HW2 6323   1.991   4.635   1.235
 1911SOL     OW 6324   3.388   4.721   0.195
 1911SOL    HW1 6325   3.325   4.652   0.218
 1911SOL    HW2 6326   3.429   4.745   0.278
 1912SOL     OW 6327   2.185   3.974   1.805
 1912SOL    HW1 6328   2.241   4.052   1.811
 1912SOL    HW2 6329   2.100   4.003   1.837
 1913SOL     OW 6330   3.324   5.145   0.954
 1913SOL    HW1 6331   3.258   5.151   1.024
 1913SOL    HW2 6332   3.315   5.055   0.921
 1914SOL     OW 6333   2.459   4.450   0.261
 1914SOL    HW1 6334   2.471   4.528   0.207
 1914SOL    HW2 6335   2.393   4.476   0.326
 1915SOL     OW 6336   3.154   4.052   0.922
 1915SOL    HW1 6337   3.060   4.031   0.920
 1915SOL    HW2 6338   3.185   4.016   1.005
 1916SOL     OW 6339   3.449   5.376   0.306
 1916SOL    HW1 6340   3.522   5.438   0.302
 1916SOL    HW2 6341   3.421   5.367   0.215
 1917SOL     OW 6342   2.652   4.342   1.458
 1917SOL    HW1 6343   2.631   4.326   1.550
 1917SOL    HW2 6344   2.621   4.265   1.412
 1918SOL     OW 6345   3.259   4.198   1.676
 1918SOL    HW1 6346   3.250   4.238   1.763
 1918SOL    HW2 6347   3.321   4.126   1.689
 1919SOL     OW 6348   2.827   4.614   1.577
 1919SOL    HW1 6349   2.878   4.540   1.545
 1919SOL    HW2 6350   2.779   4.645   1.501
 1920SOL     OW 6351   2.909   4.424   0.429
 1920SOL    HW1 6352   2.923   4.417   0.523
 1920SOL    HW2 6353   2.827   4.377   0.413
 1921SOL     OW 6354   1.946   4.541   0.778
 1921SOL    HW1 6355   2.033   4.531   0.817
 1921SOL    HW2 6356   1.914   4.624   0.812
 1922SOL     OW 6357   1.978   0.067   1.573
 1922SOL    HW1 6358   1.979   0.061   1.669
 1922SOL    HW2 6359   1.895   0.111   1.553
 1923SOL     OW 6360   2.730   4.078   0.189
 1923SOL    HW1 6361   2.799   4.125   0.142
 1923SOL    HW2 6362   2.744   3.986   0.167
 1924SOL     OW 6363   3.578   4.307   1.830
 1924SOL    HW1 6364   3.546   4.387   1.789
 1924SOL    HW2 6365   3.587   4.245   1.757
 1925SOL     OW 6366   3.232   4.867   0.544
 1925SOL    HW1 6367   3.309   4.847   0.490
 1925SOL    HW2 6368   3.182   4.930   0.491
 1926SOL     OW 6369   2.406   3.918   0.892
 1926SOL    HW1 6370   2.408   3.935   0.986
 1926SOL    HW2 6371   2.418   4.004   0.852
 1927SOL     OW 6372   2.872   5.183   0.474
 1927SOL    HW1 6373   2.820   5.252   0.432
 1927SOL    HW2 6374   2.858   5.195   0.568
 1928SOL     OW 6375   3.658   4.785   0.868
 1928SOL    HW1 6376   3.597   4.776   0.795
 1928SOL    HW2 6377   3.603   4.794   0.946
 1929SOL     OW 6378   3.092   5.267   1.506
 1929SOL    HW1 6379   3.083   5.195   1.569
 1929SOL    HW2 6380   3.034   5.244   1.434
 1930SOL     OW 6381   2.177   4.675   0.224
 1930SOL    HW1 6382   2.266   4.696   0.196
 1930SOL    HW2 6383   2.167   4.581   0.206
 1931SOL     OW 6384   3.330   4.458   0.725
 1931SOL    HW1 6385   3.319   4.408   0.806
 1931SOL    HW2 6386   3.405   4.516   0.743
 1932SOL     OW 6387   2.325   4.986   1.735
 1932SOL    HW1 6388   2.290   4.993   1.646
 1932SOL    HW2 6389   2.247   4.982   1.791
 1933SOL     OW 6390   2.061   4.024   1.522
 1933SOL    HW1 6391   1.977   4.060   1.493
 1933SOL    HW2 6392   2.038   3.958   1.587
 1934SOL     OW 6393   3.484   5.108   0.098
 1934SOL    HW1 6394   3.450   5.186   0.055
 1934SOL    HW2 6395   3.426   5.038   0.069
 1935SOL     OW 6396   3.263   3.834   0.427
 1935SOL    HW1 6397   3.248   3.804   0.338
 1935SOL    HW2 6398   3.358   3.840   0.435
 1936SOL     OW 6399   2.247   4.421   0.479
 1936SOL    HW1 6400   2.279   4.331   0.482
 1936SOL    HW2 6401   2.155   4.415   0.503
 1937SOL     OW 6402   3.404   3.957   1.724
 1937SOL    HW1 6403   3.405   3.973   1.819
 1937SOL    HW2 6404   3.342   3.886   1.712
 1938SOL     OW 6405   2.477   3.843   0.114
 1938SOL    HW1 6406   2.570   3.821   0.121
 1938SOL    HW2 6407   2.452   3.814   0.026
 1939SOL     OW 6408   2.647   4.010   1.760
 1939SOL    HW1 6409   2.703   3.933   1.771
 1939SOL    HW2 6410   2.572   3.993   1.818
 1940SOL     OW 6411   2.743   5.240   1.184
 1940SOL    HW1 6412   2.725   5.197   1.100
 1940SOL    HW2 6413   2.805   5.181   1.228
 1941SOL     OW 6414   3.209   4.321   1.438
 1941SOL    HW1 6415   3.236   4.281   1.520
 1941SOL    HW2 6416   3.244   4.410   1.442
 1942SOL     OW 6417   2.671   5.124   0.932
 1942SOL    HW1 6418   2.753   5.131   0.884
 1942SOL    HW2 6419   2.604   5.122   0.863
 1943SOL     OW 6420   2.790   4.234   0.901
 1943SOL    HW1 6421   2.764   4.222   0.810
 1943SOL    HW2 6422   2.823   4.148   0.928
 1944SOL     OW 6423   2.409   3.786   0.509
 1944SOL    HW1 6424   2.328   3.788   0.561
 1944SOL    HW2 6425   2.404   3.865   0.455
 1945SOL     OW 6426   3.288   4.920   0.033
 1945SOL    HW1 6427   3.325   4.848   0.084
 1945SOL    HW2 6428   3.203   4.937   0.074
 1946SOL     OW 6429   2.155   3.767   0.180
 1946SOL    HW1 6430   2.213   3.837   0.151
 1946SOL    HW2 6431   2.213   3.700   0.216
 1947SOL     OW 6432   2.796   3.964   0.472
 1947SOL    HW1 6433   2.761   4.005   0.393
 1947SOL    HW2 6434   2.891   3.971   0.463
 1948SOL     OW 6435   2.940   4.401   1.456
 1948SOL    HW1 6436   2.870   4.338   1.474
 1948SOL    HW2 6437   3.020   4.347   1.453
 1949SOL     OW 6438   3.096   5.282   0.787
 1949SOL    HW1 6439   3.099   5.365   0.740
 1949SOL    HW2 6440   3.153   5.295   0.863
 1950SOL     OW 6441   2.325   4.869   0.741
 1950SOL    HW1 6442   2.252   4.852   0.800
 1950SOL    HW2 6443   2.291   4.851   0.654
 1951SOL     OW 6444   2.882   4.268   0.034
 1951SOL    HW1 6445   2.864   4.347  -0.016
 1951SOL    HW2 6446   2.958   4.291   0.088
 1952SOL     OW 6447   1.935   4.285   1.423
 1952SOL    HW1 6448   2.018   4.278   1.375
 1952SOL    HW2 6449   1.946   4.363   1.478
 1953SOL     OW 6450   2.733   4.183   0.641
 1953SOL    HW1 6451   2.689   4.240   0.577
 1953SOL    HW2 6452   2.749   4.102   0.592
 1954SOL     OW 6453   2.876   3.770   0.751
 1954SOL    HW1 6454   2.812   3.763   0.680
 1954SOL    HW2 6455   2.858   3.695   0.807
 1955SOL     OW 6456   3.298   4.889   0.862
 1955SOL    HW1 6457   3.231   4.820   0.855
 1955SOL    HW2 6458   3.317   4.912   0.771
 1956SOL     OW 6459   3.327   4.328   0.979
 1956SOL    HW1 6460   3.290   4.240   0.978
 1956SOL    HW2 6461   3.401   4.322   1.040
 1957SOL     OW 6462   3.714   4.548   0.378
 1957SOL    HW1 6463   3.763   4.490   0.436
 1957SOL    HW2 6464   3.682   4.490   0.309
 1958SOL     OW 6465   2.355   5.118   0.159
 1958SOL    HW1 6466   2.284   5.093   0.219
 1958SOL    HW2 6467   2.310   5.139   0.077
 1959SOL     OW 6468   3.528   4.994   0.658
 1959SOL    HW1 6469   3.623   5.005   0.665
 1959SOL    HW2 6470   3.492   5.081   0.676
 1960SOL     OW 6471   3.246   4.298   0.072
 1960SOL    HW1 6472   3.196   4.275   0.150
 1960SOL    HW2 6473   3.333   4.260   0.087
 1961SOL     OW 6474   2.390   3.985   0.327
 1961SOL    HW1 6475   2.421   3.931   0.254
 1961SOL    HW2 6476   2.379   4.072   0.288
 1962SOL     OW 6477   3.616   4.953   1.581
 1962SOL    HW1 6478   3.705   4.917   1.577
 1962SOL    HW2 6479   3.629   5.044   1.611
 1963SOL     OW 6480   2.927   5.078   1.338
 1963SOL    HW1 6481   2.851   5.045   1.386
 1963SOL    HW2 6482   3.002   5.036   1.381
 1964SOL     OW 6483   3.456   5.342   1.631
 1964SOL    HW1 6484   3.472   5.398   1.555
 1964SOL    HW2 6485   3.543   5.309   1.655
 1965SOL     OW 6486   2.980   4.921   1.107
 1965SOL    HW1 6487   2.927   4.963   1.175
 1965SOL    HW2 6488   2.944   4.954   1.024
 1966SOL     OW 6489   3.496   4.823   1.080
 1966SOL    HW1 6490   3.495   4.892   1.147
 1966SOL    HW2 6491   3.415   4.837   1.031
 1967SOL     OW 6492   2.845   4.838   1.718
 1967SOL    HW1 6493   2.751   4.848   1.735
 1967SOL    HW2 6494   2.852   4.760   1.664
 1968SOL     OW 6495   2.569   4.781   0.372
 1968SOL    HW1 6496   2.558   4.773   0.467
 1968SOL    HW2 6497   2.647   4.728   0.353
 1969SOL     OW 6498   2.277   4.534   1.250
 1969SOL    HW1 6499   2.350   4.551   1.310
 1969SOL    HW2 6500   2.239   4.452   1.281
 1970SOL     OW 6501   1.926   5.292   1.342
 1970SOL    HW1 6502   1.887   5.363   1.292
 1970SOL    HW2 6503   2.020   5.311   1.341
 1971SOL     OW 6504   2.219   4.827   0.496
 1971SOL    HW1 6505   2.224   4.902   0.437
 1971SOL    HW2 6506   2.227   4.751   0.439
 1972SOL     OW 6507   2.430   4.255   0.861
 1972SOL    HW1 6508   2.441   4.318   0.789
 1972SOL    HW2 6509   2.479   4.293   0.934
 1973SOL     OW 6510   3.110   5.071   0.392
 1973SOL    HW1 6511   3.161   5.145   0.424
 1973SOL    HW2 6512   3.021   5.087   0.423
 1974SOL     OW 6513   3.136   5.173   1.145
 1974SOL    HW1 6514   3.184   5.176   1.228
 1974SOL    HW2 6515   3.077   5.098   1.154
 1975SOL     OW 6516   3.448   4.357   0.476
 1975SOL    HW1 6517   3.407   4.417   0.537
 1975SOL    HW2 6518   3.489   4.413   0.410
 1976SOL     OW 6519   2.213   5.235   1.325
 1976SOL    HW1 6520   2.197   5.200   1.237
 1976SOL    HW2 6521   2.306   5.258   1.325
 1977SOL     OW 6522   2.270   4.472   1.598
 1977SOL    HW1 6523   2.336   4.517   1.546
 1977SOL    HW2 6524   2.309   4.387   1.618
 1978SOL     OW 6525   3.453   4.498   1.673
 1978SOL    HW1 6526   3.366   4.540   1.668
 1978SOL    HW2 6527   3.506   4.545   1.609
 1979SOL     OW 6528   2.864   3.833   1.764
 1979SOL    HW1 6529   2.894   3.909   1.714
 1979SOL    HW2 6530   2.911   3.759   1.726
 1980SOL     OW 6531   2.367   3.782   1.746
 1980SOL    HW1 6532   2.330   3.717   1.686
 1980SOL    HW2 6533   2.296   3.844   1.762
 1981SOL     OW 6534   2.438   4.603   1.027
 1981SOL    HW1 6535   2.472   4.692   1.026
 1981SOL    HW2 6536   2.382   4.599   1.104
 1982SOL     OW 6537   3.224   4.583   1.040
 1982SOL    HW1 6538   3.148   4.587   0.983
 1982SOL    HW2 6539   3.252   4.492   1.037
 1983SOL     OW 6540   3.073   4.251   0.274
 1983SOL    HW1 6541   3.078   4.173   0.328
 1983SOL    HW2 6542   3.034   4.318   0.332
 1984SOL     OW 6543   1.905   5.032   1.279
 1984SOL    HW1 6544   1.946   4.985   1.352
 1984SOL    HW2 6545   1.917   5.124   1.299
 1985SOL     OW 6546   2.588   4.377   1.045
 1985SOL    HW1 6547   2.654   4.352   0.981
 1985SOL    HW2 6548   2.563   4.466   1.020
 1986SOL     OW 6549   3.594   4.679   1.850
 1986SOL    HW1 6550   3.543   4.639   1.780
 1986SOL    HW2 6551   3.532   4.692   1.921
 1987SOL     OW 6552   2.165   3.791   0.622
 1987SOL    HW1 6553   2.148   3.880   0.652
 1987SOL    HW2 6554   2.163   3.738   0.701
 1988SOL     OW 6555   3.473   4.093   0.370
 1988SOL    HW1 6556   3.498   4.028   0.436
 1988SOL    HW2 6557   3.446   4.169   0.421
 1989SOL     OW 6558   2.888   4.486   0.965
 1989SOL    HW1 6559   2.892   4.503   1.059
 1989SOL    HW2 6560   2.859   4.396   0.958
 1990SOL     OW 6561   2.843   5.294   1.700
 1990SOL    HW1 6562   2.823   5.332   1.614
 1990SOL    HW2 6563   2.884   5.210   1.680
 1991SOL     OW 6564   3.722   5.237   1.606
 1991SOL    HW1 6565   3.738   5.263   1.515
 1991SOL    HW2 6566   3.800   5.264   1.653
 1992SOL     OW 6567   2.213   4.639   1.804
 1992SOL    HW1 6568   2.294   4.657   1.851
 1992SOL    HW2 6569   2.239   4.577   1.735
 1993SOL     OW 6570   3.402   3.999   0.123
 1993SOL    HW1 6571   3.339   3.930   0.145
 1993SOL    HW2 6572   3.427   4.037   0.207
 1994SOL     OW 6573   3.165   4.555   0.035
 1994SOL    HW1 6574   3.197   4.465   0.043
 1994SOL    HW2 6575   3.181   4.578  -0.056
 1995SOL     OW 6576   2.932   5.055   0.854
 1995SOL    HW1 6577   2.932   4.983   0.791
 1995SOL    HW2 6578   2.990   5.121   0.815
 1996SOL     OW 6579   2.175   4.540   0.956
 1996SOL    HW1 6580   2.268   4.561   0.949
 1996SOL    HW2 6581   2.173   4.446   0.976
 1997SOL     OW 6582   2.183   4.258   0.956
 1997SOL    HW1 6583   2.158   4.170   0.985
 1997SOL    HW2 6584   2.271   4.247   0.921
 1998SOL     OW 6585   2.996   4.114   1.673
 1998SOL    HW1 6586   2.957   4.163   1.745
 1998SOL    HW2 6587   3.088   4.141   1.673
 1999SOL     OW 6588   3.031   3.922   1.494
 1999SOL    HW1 6589   3.013   3.992   1.557
 1999SOL    HW2 6590   3.052   3.968   1.412
 2000SOL     OW 6591   1.866   5.054   0.198
 2000SOL    HW1 6592   1.776   5.065   0.165
 2000SOL    HW2 6593   1.873   4.961   0.219
 2001SOL     OW 6594   2.369   5.289   0.914
 2001SOL    HW1 6595   2.427   5.365   0.908
 2001SOL    HW2 6596   2.410   5.223   0.858
 2002SOL     OW 6597   2.858   4.518   1.230
 2002SOL    HW1 6598   2.902   4.492   1.312
 2002SOL    HW2 6599   2.767   4.494   1.243
 2003SOL     OW 6600   2.056   4.244   1.725
 2003SOL    HW1 6601   2.104   4.200   1.654
 2003SOL    HW2 6602   1.997   4.305   1.680
 2004SOL     OW 6603   3.238   4.668   1.660
 2004SOL    HW1 6604   3.260   4.761   1.668
 2004SOL    HW2 6605   3.236   4.651   1.566
 2005SOL     OW 6606   2.677   4.294   0.344
 2005SOL    HW1 6607   2.679   4.216   0.289
 2005SOL    HW2 6608   2.593   4.336   0.322
 2006SOL     OW 6609   2.117   5.282   1.740
 2006SOL    HW1 6610   2.085   5.340   1.810
 2006SOL    HW2 6611   2.106   5.194   1.776
 2007SOL     OW 6612   2.332   4.218   0.198
 2007SOL    HW1 6613   2.388   4.296   0.202
 2007SOL    HW2 6614   2.243   4.253   0.191
 2008SOL     OW 6615   2.013   4.862   1.469
 2008SOL    HW1 6616   2.030   4.806   1.544
 2008SOL    HW2 6617   2.030   4.807   1.393
 2009SOL     OW 6618   3.199   4.775   1.230
 2009SOL    HW1 6619   3.223   4.717   1.157
 2009SOL    HW2 6620   3.121   4.821   1.199
 2010SOL     OW 6621   3.168   4.573   0.311
 2010SOL    HW1 6622   3.083   4.551   0.351
 2010SOL    HW2 6623   3.152   4.569   0.217
 2011SOL     OW 6624   3.617   5.442   1.159
 2011SOL    HW1 6625   3.655   5.486   1.083
 2011SOL    HW2 6626   3.590   5.356   1.127
 2012SOL     OW 6627   3.112   5.441   1.125
 2012SOL    HW1 6628   3.193   5.461   1.080
 2012SOL    HW2 6629   3.113   5.346   1.137
 2013SOL     OW 6630   1.947   4.983   1.019
 2013SOL    HW1 6631   1.934   4.994   1.113
 2013SOL    HW2 6632   1.867   4.941   0.987
 2014SOL     OW 6633   2.768   3.815   0.129
 2014SOL    HW1 6634   2.816   3.801   0.047
 2014SOL    HW2 6635   2.817   3.765   0.194
 2015SOL     OW 6636   3.580   3.861   0.517
 2015SOL    HW1 6637   3.655   3.847   0.459
 2015SOL    HW2 6638   3.564   3.776   0.557
 2016SOL     OW 6639   3.250   5.295   0.480
 2016SOL    HW1 6640   3.319   5.307   0.415
 2016SOL    HW2 6641   3.215   5.383   0.494
 2017SOL     OW 6642   1.977   0.061   1.840
 2017SOL    HW1 6643   1.939  -0.010   1.893
 2017SOL    HW2 6644   2.044   0.099   1.896
 2018SOL     OW 6645   3.140   4.647   0.672
 2018SOL    HW1 6646   3.210   4.582   0.671
 2018SOL    HW2 6647   3.173   4.720   0.619
 2019SOL     OW 6648   2.687   4.995   1.430
 2019SOL    HW1 6649   2.668   5.030   1.516
 2019SOL    HW2 6650   2.609   5.016   1.377
 2020SOL     OW 6651   2.555   5.314   0.148
 2020SOL    HW1 6652   2.520   5.351   0.067
 2020SOL    HW2 6653   2.490   5.250   0.175
 2021SOL     OW 6654   3.714   3.913   0.917
 2021SOL    HW1 6655   3.744   3.823   0.922
 2021SOL    HW2 6656   3.618   3.906   0.919
 2022SOL     OW 6657   2.128   4.046   0.722
 2022SOL    HW1 6658   2.047   4.084   0.686
 2022SOL    HW2 6659   2.108   4.031   0.814
 2023SOL     OW 6660   3.023   5.340   0.059
 2023SOL    HW1 6661   3.047   5.250   0.080
 2023SOL    HW2 6662   3.026   5.345  -0.037
 2024SOL     OW 6663   2.688   4.728   1.371
 2024SOL    HW1 6664   2.726   4.730   1.283
 2024SOL    HW2 6665   2.690   4.819   1.400
 2025SOL     OW 6666   2.778   4.635   0.290
 2025SOL    HW1 6667   2.840   4.669   0.225
 2025SOL    HW2 6668   2.823   4.560   0.329
 2026SOL     OW 6669   2.233   5.018   1.491
 2026SOL    HW1 6670   2.219   5.101   1.445
 2026SOL    HW2 6671   2.153   4.967   1.474
 2027SOL     OW 6672   3.472   5.008   1.286
 2027SOL    HW1 6673   3.534   5.010   1.360
 2027SOL    HW2 6674   3.412   5.080   1.304
 2028SOL     OW 6675   2.905   4.825   0.702
 2028SOL    HW1 6676   2.835   4.774   0.744
 2028SOL    HW2 6677   2.962   4.760   0.662
 2029SOL     OW 6678   2.887   3.966   0.931
 2029SOL    HW1 6679   2.874   3.908   0.856
 2029SOL    HW2 6680   2.874   3.910   1.007
 2030SOL     OW 6681   2.450   5.203   0.487
 2030SOL    HW1 6682   2.496   5.163   0.413
 2030SOL    HW2 6683   2.420   5.288   0.453
 2031SOL     OW 6684   2.121   5.076   0.286
 2031SOL    HW1 6685   2.029   5.068   0.262
 2031SOL    HW2 6686   2.120   5.113   0.374
 2032SOL     OW 6687   1.971   4.738   1.722
 2032SOL    HW1 6688   1.897   4.712   1.776
 2032SOL    HW2 6689   2.048   4.704   1.769
 2033SOL     OW 6690   1.930   4.067   0.037
 2033SOL    HW1 6691   1.840   4.049   0.010
 2033SOL    HW2 6692   1.955   4.145  -0.013
 2034SOL     OW 6693   3.299   4.581   1.399
 2034SOL    HW1 6694   3.249   4.639   1.341
 2034SOL    HW2 6695   3.391   4.596   1.375
 2035SOL     OW 6696   1.934   3.885   0.316
 2035SOL    HW1 6697   1.921   3.965   0.266
 2035SOL    HW2 6698   2.020   3.853   0.288
 2036SOL     OW 6699   3.048   5.071   0.119
 2036SOL    HW1 6700   2.956   5.045   0.116
 2036SOL    HW2 6701   3.072   5.063   0.211
 2037SOL     OW 6702   2.477   4.560   1.428
 2037SOL    HW1 6703   2.532   4.637   1.417
 2037SOL    HW2 6704   2.539   4.488   1.440
 2038SOL     OW 6705   2.582   4.289   1.706
 2038SOL    HW1 6706   2.606   4.349   1.777
 2038SOL    HW2 6707   2.624   4.207   1.729
 2039SOL     OW 6708   3.322   4.932   1.634
 2039SOL    HW1 6709   3.313   4.942   1.728
 2039SOL    HW2 6710   3.416   4.940   1.618
 2040SOL     OW 6711   3.541   4.607   1.252
 2040SOL    HW1 6712   3.512   4.529   1.205
 2040SOL    HW2 6713   3.533   4.678   1.189
 2041SOL     OW 6714   3.084   4.045   0.454
 2041SOL    HW1 6715   3.149   3.975   0.445
 2041SOL    HW2 6716   3.111   4.092   0.533
 2042SOL     OW 6717   2.455   4.468   0.660
 2042SOL    HW1 6718   2.497   4.552   0.642
 2042SOL    HW2 6719   2.379   4.465   0.603
 2043SOL     OW 6720   3.634   4.075   1.644
 2043SOL    HW1 6721   3.615   4.102   1.554
 2043SOL    HW2 6722   3.557   4.024   1.671
 2044SOL     OW 6723   3.597   4.658   1.514
 2044SOL    HW1 6724   3.619   4.750   1.528
 2044SOL    HW2 6725   3.590   4.650   1.419
 2045SOL     OW 6726   2.765   5.098   0.040
 2045SOL    HW1 6727   2.696   5.102   0.106
 2045SOL    HW2 6728   2.763   5.184  -0.003
 2046SOL     OW 6729   2.724   4.684   0.858
 2046SOL    HW1 6730   2.777   4.618   0.903
 2046SOL    HW2 6731   2.695   4.743   0.928
 2047SOL     OW 6732   2.959   4.726   0.100
 2047SOL    HW1 6733   2.909   4.738   0.019
 2047SOL    HW2 6734   3.027   4.663   0.077
 2048SOL     OW 6735   3.723   5.295   0.847
 2048SOL    HW1 6736   3.647   5.280   0.791
 2048SOL    HW2 6737   3.718   5.226   0.913
 2049SOL     OW 6738   2.085   5.032   1.852
 2049SOL    HW1 6739   2.018   4.968   1.828
 2049SOL    HW2 6740   2.075   5.044   1.946
 2050SOL     OW 6741   1.946   4.964   0.659
 2050SOL    HW1 6742   1.944   4.914   0.740
 2050SOL    HW2 6743   2.018   4.925   0.608
 2051SOL     OW 6744   2.539   5.121   1.621
 2051SOL    HW1 6745   2.462   5.074   1.654
 2051SOL    HW2 6746   2.529   5.210   1.654
 2052SOL     OW 6747   2.292   4.155   0.522
 2052SOL    HW1 6748   2.318   4.082   0.465
 2052SOL    HW2 6749   2.249   4.112   0.596
 2053SOL     OW 6750   3.568   5.196   1.093
 2053SOL    HW1 6751   3.478   5.175   1.068
 2053SOL    HW2 6752   3.582   5.145   1.173
 2054SOL     OW 6753   2.689   5.283   0.686
 2054SOL    HW1 6754   2.687   5.340   0.610
 2054SOL    HW2 6755   2.602   5.244   0.690
 2055SOL     OW 6756   2.631   5.053   0.305
 2055SOL    HW1 6757   2.594   4.965   0.318
 2055SOL    HW2 6758   2.717   5.050   0.346
 2056SOL     OW 6759   2.482   5.293   1.285
 2056SOL    HW1 6760   2.488   5.370   1.342
 2056SOL    HW2 6761   2.569   5.284   1.246
 2057SOL     OW 6762   3.214   3.777   0.166
 2057SOL    HW1 6763   3.240   3.732   0.086
 2057SOL    HW2 6764   3.128   3.739   0.187
 2058SOL     OW 6765   3.163   4.184   0.685
 2058SOL    HW1 6766   3.104   4.258   0.696
 2058SOL    HW2 6767   3.163   4.140   0.770
 2059SOL     OW 6768   3.445   3.939   0.885
 2059SOL    HW1 6769   3.356   3.950   0.918
 2059SOL    HW2 6770   3.457   4.011   0.824
 2060SOL     OW 6771   1.902   4.800   0.303
 2060SOL    HW1 6772   1.997   4.792   0.296
 2060SOL    HW2 6773   1.873   4.714   0.333
 2061SOL     OW 6774   2.093   4.353   1.979
 2061SOL    HW1 6775   2.002   4.347   2.011
 2061SOL    HW2 6776   2.089   4.317   1.890
 2062SOL     OW 6777   2.086   4.000   2.852
 2062SOL    HW1 6778   2.116   3.975   2.939
 2062SOL    HW2 6779   1.998   3.964   2.846
 2063SOL     OW 6780   1.872   4.104   2.500
 2063SOL    HW1 6781   1.790   4.126   2.545
 2063SOL    HW2 6782   1.852   4.024   2.452
 2064SOL     OW 6783   2.429   5.000   3.030
 2064SOL    HW1 6784   2.341   5.000   2.992
 2064SOL    HW2 6785   2.440   5.087   3.067
 2065SOL     OW 6786   3.419   5.239   2.564
 2065SOL    HW1 6787   3.368   5.222   2.643
 2065SOL    HW2 6788   3.354   5.248   2.495
 2066SOL     OW 6789   2.991   4.425   2.572
 2066SOL    HW1 6790   3.045   4.503   2.555
 2066SOL    HW2 6791   2.943   4.445   2.652
 2067SOL     OW 6792   3.621   4.333   2.095
 2067SOL    HW1 6793   3.606   4.320   2.002
 2067SOL    HW2 6794   3.590   4.252   2.136
 2068SOL     OW 6795   2.627   4.870   2.894
 2068SOL    HW1 6796   2.554   4.898   2.948
 2068SOL    HW2 6797   2.657   4.949   2.850
 2069SOL     OW 6798   2.549   4.737   2.517
 2069SOL    HW1 6799   2.611   4.718   2.588
 2069SOL    HW2 6800   2.478   4.785   2.560
 2070SOL     OW 6801   2.194   5.156   2.930
 2070SOL    HW1 6802   2.122   5.125   2.875
 2070SOL    HW2 6803   2.248   5.208   2.872
 2071SOL     OW 6804   3.329   5.226   3.206
 2071SOL    HW1 6805   3.340   5.320   3.223
 2071SOL    HW2 6806   3.293   5.190   3.287
 2072SOL     OW 6807   2.306   4.121   3.352
 2072SOL    HW1 6808   2.380   4.060   3.361
 2072SOL    HW2 6809   2.228   4.066   3.364
 2073SOL     OW 6810   3.473   4.174   2.599
 2073SOL    HW1 6811   3.398   4.209   2.551
 2073SOL    HW2 6812   3.505   4.248   2.651
 2074SOL     OW 6813   2.083   5.165   2.391
 2074SOL    HW1 6814   2.069   5.256   2.417
 2074SOL    HW2 6815   2.028   5.115   2.450
 2075SOL     OW 6816   2.109   4.814   2.749
 2075SOL    HW1 6817   2.112   4.731   2.797
 2075SOL    HW2 6818   2.053   4.871   2.802
 2076SOL     OW 6819   2.457   4.698   1.990
 2076SOL    HW1 6820   2.489   4.762   1.927
 2076SOL    HW2 6821   2.504   4.718   2.071
 2077SOL     OW 6822   3.455   3.841   3.343
 2077SOL    HW1 6823   3.447   3.913   3.279
 2077SOL    HW2 6824   3.451   3.884   3.428
 2078SOL     OW 6825   1.979   4.371   2.423
 2078SOL    HW1 6826   1.946   4.283   2.442
 2078SOL    HW2 6827   1.971   4.419   2.506
 2079SOL     OW 6828   1.880   5.318   1.982
 2079SOL    HW1 6829   1.874   5.225   2.005
 2079SOL    HW2 6830   1.866   5.364   2.065
 2080SOL     OW 6831   3.552   4.645   2.490
 2080SOL    HW1 6832   3.641   4.611   2.480
 2080SOL    HW2 6833   3.537   4.696   2.411
 2081SOL     OW 6834   3.506   4.833   2.293
 2081SOL    HW1 6835   3.590   4.843   2.248
 2081SOL    HW2 6836   3.513   4.890   2.369
 2082SOL     OW 6837   1.980   4.460   3.449
 2082SOL    HW1 6838   2.069   4.470   3.481
 2082SOL    HW2 6839   1.945   4.549   3.444
 2083SOL     OW 6840   2.471   5.099   2.596
 2083SOL    HW1 6841   2.426   5.015   2.602
 2083SOL    HW2 6842   2.455   5.129   2.506
 2084SOL     OW 6843   3.161   4.962   3.296
 2084SOL    HW1 6844   3.189   4.894   3.234
 2084SOL    HW2 6845   3.211   4.943   3.376
 2085SOL     OW 6846   2.670   3.723   2.363
 2085SOL    HW1 6847   2.711   3.809   2.355
 2085SOL    HW2 6848   2.577   3.741   2.376
 2086SOL     OW 6849   2.057   4.698   3.125
 2086SOL    HW1 6850   2.140   4.651   3.112
 2086SOL    HW2 6851   1.990   4.634   3.100
 2087SOL     OW 6852   3.394   4.716   2.054
 2087SOL    HW1 6853   3.325   4.653   2.077
 2087SOL    HW2 6854   3.430   4.744   2.138
 2088SOL     OW 6855   3.323   5.145   2.815
 2088SOL    HW1 6856   3.259   5.151   2.886
 2088SOL    HW2 6857   3.316   5.056   2.783
 2089SOL     OW 6858   2.457   4.449   2.126
 2089SOL    HW1 6859   2.473   4.525   2.070
 2089SOL    HW2 6860   2.390   4.479   2.188
 2090SOL     OW 6861   3.144   4.068   2.796
 2090SOL    HW1 6862   3.056   4.030   2.799
 2090SOL    HW2 6863   3.194   4.017   2.859
 2091SOL     OW 6864   3.450   5.375   2.169
 2091SOL    HW1 6865   3.524   5.436   2.167
 2091SOL    HW2 6866   3.420   5.371   2.078
 2092SOL     OW 6867   2.664   4.334   3.318
 2092SOL    HW1 6868   2.629   4.321   3.406
 2092SOL    HW2 6869   2.613   4.275   3.262
 2093SOL     OW 6870   2.831   4.619   3.432
 2093SOL    HW1 6871   2.876   4.542   3.397
 2093SOL    HW2 6872   2.775   4.649   3.360
 2094SOL     OW 6873   2.853   4.135   3.105
 2094SOL    HW1 6874   2.773   4.164   3.147
 2094SOL    HW2 6875   2.824   4.088   3.027
 2095SOL     OW 6876   2.909   4.424   2.290
 2095SOL    HW1 6877   2.923   4.417   2.385
 2095SOL    HW2 6878   2.827   4.376   2.275
 2096SOL     OW 6879   1.948   4.542   2.637
 2096SOL    HW1 6880   2.033   4.531   2.679
 2096SOL    HW2 6881   1.913   4.623   2.675
 2097SOL     OW 6882   1.982   0.063   3.444
 2097SOL    HW1 6883   1.968   0.062   3.539
 2097SOL    HW2 6884   1.903   0.104   3.409
 2098SOL     OW 6885   2.739   4.069   2.059
 2098SOL    HW1 6886   2.787   4.128   2.001
 2098SOL    HW2 6887   2.754   3.982   2.022
 2099SOL     OW 6888   3.232   4.867   2.406
 2099SOL    HW1 6889   3.310   4.848   2.353
 2099SOL    HW2 6890   3.182   4.930   2.352
 2100SOL     OW 6891   2.409   3.913   2.751
 2100SOL    HW1 6892   2.411   3.931   2.845
 2100SOL    HW2 6893   2.415   4.000   2.711
 2101SOL     OW 6894   2.871   5.182   2.335
 2101SOL    HW1 6895   2.821   5.253   2.294
 2101SOL    HW2 6896   2.858   5.195   2.429
 2102SOL     OW 6897   3.659   4.788   2.729
 2102SOL    HW1 6898   3.596   4.773   2.658
 2102SOL    HW2 6899   3.605   4.793   2.807
 2103SOL     OW 6900   3.087   5.265   3.357
 2103SOL    HW1 6901   3.094   5.186   3.412
 2103SOL    HW2 6902   3.031   5.238   3.284
 2104SOL     OW 6903   2.182   4.675   2.104
 2104SOL    HW1 6904   2.266   4.697   2.063
 2104SOL    HW2 6905   2.156   4.593   2.064
 2105SOL     OW 6906   3.330   4.458   2.589
 2105SOL    HW1 6907   3.319   4.407   2.669
 2105SOL    HW2 6908   3.405   4.515   2.607
 2106SOL     OW 6909   2.065   4.001   3.352
 2106SOL    HW1 6910   1.990   4.058   3.335
 2106SOL    HW2 6911   2.046   3.961   3.436
 2107SOL     OW 6912   3.490   5.103   1.951
 2107SOL    HW1 6913   3.456   5.186   1.918
 2107SOL    HW2 6914   3.422   5.039   1.931
 2108SOL     OW 6915   3.263   3.832   2.289
 2108SOL    HW1 6916   3.246   3.804   2.199
 2108SOL    HW2 6917   3.358   3.841   2.294
 2109SOL     OW 6918   2.248   4.421   2.342
 2109SOL    HW1 6919   2.279   4.331   2.345
 2109SOL    HW2 6920   2.155   4.415   2.365
 2110SOL     OW 6921   2.483   3.850   1.975
 2110SOL    HW1 6922   2.569   3.809   1.980
 2110SOL    HW2 6923   2.447   3.820   1.892
 2111SOL     OW 6924   2.744   5.240   3.046
 2111SOL    HW1 6925   2.724   5.197   2.963
 2111SOL    HW2 6926   2.804   5.181   3.090
 2112SOL     OW 6927   3.204   4.313   3.302
 2112SOL    HW1 6928   3.245   4.283   3.383
 2112SOL    HW2 6929   3.240   4.400   3.288
 2113SOL     OW 6930   2.671   5.125   2.794
 2113SOL    HW1 6931   2.753   5.130   2.746
 2113SOL    HW2 6932   2.604   5.122   2.726
 2114SOL     OW 6933   2.787   4.231   2.765
 2114SOL    HW1 6934   2.763   4.221   2.673
 2114SOL    HW2 6935   2.825   4.147   2.790
 2115SOL     OW 6936   2.408   3.787   2.372
 2115SOL    HW1 6937   2.327   3.789   2.423
 2115SOL    HW2 6938   2.405   3.865   2.317
 2116SOL     OW 6939   3.292   4.919   1.902
 2116SOL    HW1 6940   3.324   4.845   1.954
 2116SOL    HW2 6941   3.205   4.938   1.938
 2117SOL     OW 6942   2.156   3.766   2.042
 2117SOL    HW1 6943   2.212   3.836   2.008
 2117SOL    HW2 6944   2.218   3.703   2.080
 2118SOL     OW 6945   2.795   3.964   2.334
 2118SOL    HW1 6946   2.762   4.005   2.255
 2118SOL    HW2 6947   2.891   3.969   2.325
 2119SOL     OW 6948   2.941   4.402   3.324
 2119SOL    HW1 6949   2.868   4.339   3.321
 2119SOL    HW2 6950   3.019   4.349   3.309
 2120SOL     OW 6951   3.096   5.282   2.649
 2120SOL    HW1 6952   3.099   5.366   2.602
 2120SOL    HW2 6953   3.153   5.294   2.724
 2121SOL     OW 6954   2.325   4.869   2.603
 2121SOL    HW1 6955   2.252   4.852   2.662
 2121SOL    HW2 6956   2.291   4.850   2.516
 2122SOL     OW 6957   2.895   4.274   1.876
 2122SOL    HW1 6958   2.851   4.356   1.854
 2122SOL    HW2 6959   2.952   4.296   1.949
 2123SOL     OW 6960   1.938   4.276   3.254
 2123SOL    HW1 6961   2.027   4.278   3.220
 2123SOL    HW2 6962   1.934   4.349   3.316
 2124SOL     OW 6963   2.427   3.950   3.021
 2124SOL    HW1 6964   2.458   3.865   3.052
 2124SOL    HW2 6965   2.336   3.954   3.050
 2125SOL     OW 6966   2.732   4.182   2.503
 2125SOL    HW1 6967   2.690   4.240   2.439
 2125SOL    HW2 6968   2.750   4.102   2.454
 2126SOL     OW 6969   2.875   3.774   2.618
 2126SOL    HW1 6970   2.815   3.766   2.545
 2126SOL    HW2 6971   2.857   3.698   2.673
 2127SOL     OW 6972   3.296   4.891   2.723
 2127SOL    HW1 6973   3.233   4.818   2.719
 2127SOL    HW2 6974   3.316   4.911   2.632
 2128SOL     OW 6975   3.332   4.320   2.849
 2128SOL    HW1 6976   3.292   4.233   2.856
 2128SOL    HW2 6977   3.396   4.323   2.920
 2129SOL     OW 6978   3.711   4.549   2.242
 2129SOL    HW1 6979   3.763   4.492   2.299
 2129SOL    HW2 6980   3.682   4.491   2.171
 2130SOL     OW 6981   2.354   5.128   2.029
 2130SOL    HW1 6982   2.278   5.098   2.078
 2130SOL    HW2 6983   2.326   5.124   1.937
 2131SOL     OW 6984   3.528   4.995   2.517
 2131SOL    HW1 6985   3.622   5.004   2.528
 2131SOL    HW2 6986   3.493   5.081   2.538
 2132SOL     OW 6987   3.254   4.297   1.935
 2132SOL    HW1 6988   3.198   4.278   2.010
 2132SOL    HW2 6989   3.339   4.260   1.958
 2133SOL     OW 6990   2.389   3.985   2.188
 2133SOL    HW1 6991   2.421   3.931   2.116
 2133SOL    HW2 6992   2.380   4.072   2.150
 2134SOL     OW 6993   3.623   4.945   3.434
 2134SOL    HW1 6994   3.715   4.918   3.433
 2134SOL    HW2 6995   3.625   5.034   3.469
 2135SOL     OW 6996   2.930   5.078   3.203
 2135SOL    HW1 6997   2.852   5.045   3.247
 2135SOL    HW2 6998   3.003   5.032   3.244
 2136SOL     OW 6999   3.461   5.343   3.500
 2136SOL    HW1 7000   3.465   5.398   3.422
 2136SOL    HW2 7001   3.550   5.310   3.511
 2137SOL     OW 7002   2.981   4.924   2.969
 2137SOL    HW1 7003   2.924   4.963   3.036
 2137SOL    HW2 7004   2.944   4.954   2.886
 2138SOL     OW 7005   3.498   4.826   2.940
 2138SOL    HW1 7006   3.495   4.891   3.010
 2138SOL    HW2 7007   3.414   4.835   2.895
 2139SOL     OW 7008   2.779   3.822   3.268
 2139SOL    HW1 7009   2.798   3.799   3.177
 2139SOL    HW2 7010   2.859   3.865   3.299
 2140SOL     OW 7011   2.568   4.781   2.234
 2140SOL    HW1 7012   2.556   4.773   2.328
 2140SOL    HW2 7013   2.646   4.728   2.215
 2141SOL     OW 7014   2.276   4.536   3.112
 2141SOL    HW1 7015   2.347   4.547   3.175
 2141SOL    HW2 7016   2.238   4.451   3.134
 2142SOL     OW 7017   3.133   4.105   3.131
 2142SOL    HW1 7018   3.160   4.183   3.180
 2142SOL    HW2 7019   3.047   4.127   3.096
 2143SOL     OW 7020   1.929   5.297   3.202
 2143SOL    HW1 7021   1.890   5.365   3.146
 2143SOL    HW2 7022   2.023   5.311   3.194
 2144SOL     OW 7023   2.221   4.826   2.358
 2144SOL    HW1 7024   2.224   4.901   2.299
 2144SOL    HW2 7025   2.225   4.750   2.301
 2145SOL     OW 7026   2.423   4.262   2.725
 2145SOL    HW1 7027   2.440   4.322   2.653
 2145SOL    HW2 7028   2.477   4.295   2.797
 2146SOL     OW 7029   3.110   5.072   2.251
 2146SOL    HW1 7030   3.161   5.145   2.286
 2146SOL    HW2 7031   3.022   5.087   2.285
 2147SOL     OW 7032   3.135   5.174   3.007
 2147SOL    HW1 7033   3.185   5.175   3.089
 2147SOL    HW2 7034   3.079   5.097   3.014
 2148SOL     OW 7035   3.445   4.356   2.336
 2148SOL    HW1 7036   3.409   4.417   2.400
 2148SOL    HW2 7037   3.491   4.412   2.273
 2149SOL     OW 7038   2.212   5.234   3.188
 2149SOL    HW1 7039   2.197   5.198   3.100
 2149SOL    HW2 7040   2.304   5.258   3.188
 2150SOL     OW 7041   2.264   4.473   3.463
 2150SOL    HW1 7042   2.328   4.524   3.414
 2150SOL    HW2 7043   2.310   4.391   3.484
 2151SOL     OW 7044   3.454   4.491   3.527
 2151SOL    HW1 7045   3.375   4.545   3.537
 2151SOL    HW2 7046   3.514   4.546   3.476
 2152SOL     OW 7047   2.442   4.594   2.893
 2152SOL    HW1 7048   2.473   4.684   2.886
 2152SOL    HW2 7049   2.382   4.595   2.968
 2153SOL     OW 7050   3.224   4.585   2.902
 2153SOL    HW1 7051   3.148   4.581   2.844
 2153SOL    HW2 7052   3.257   4.495   2.906
 2154SOL     OW 7053   3.074   4.254   2.135
 2154SOL    HW1 7054   3.079   4.173   2.187
 2154SOL    HW2 7055   3.034   4.318   2.194
 2155SOL     OW 7056   2.168   3.930   3.102
 2155SOL    HW1 7057   2.135   3.963   3.186
 2155SOL    HW2 7058   2.142   3.838   3.101
 2156SOL     OW 7059   1.907   5.033   3.140
 2156SOL    HW1 7060   1.945   4.985   3.214
 2156SOL    HW2 7061   1.918   5.125   3.163
 2157SOL     OW 7062   2.593   4.358   2.926
 2157SOL    HW1 7063   2.657   4.337   2.859
 2157SOL    HW2 7064   2.564   4.447   2.904
 2158SOL     OW 7065   2.163   3.791   2.484
 2158SOL    HW1 7066   2.150   3.881   2.514
 2158SOL    HW2 7067   2.165   3.739   2.564
 2159SOL     OW 7068   3.473   4.092   2.232
 2159SOL    HW1 7069   3.498   4.028   2.299
 2159SOL    HW2 7070   3.446   4.169   2.282
 2160SOL     OW 7071   2.887   4.487   2.827
 2160SOL    HW1 7072   2.894   4.504   2.921
 2160SOL    HW2 7073   2.860   4.395   2.821
 2161SOL     OW 7074   3.716   5.224   3.446
 2161SOL    HW1 7075   3.742   5.255   3.360
 2161SOL    HW2 7076   3.779   5.263   3.506
 2162SOL     OW 7077   3.395   4.000   1.988
 2162SOL    HW1 7078   3.336   3.930   2.016
 2162SOL    HW2 7079   3.427   4.038   2.070
 2163SOL     OW 7080   3.161   4.555   1.900
 2163SOL    HW1 7081   3.200   4.468   1.905
 2163SOL    HW2 7082   3.188   4.588   1.814
 2164SOL     OW 7083   2.931   5.055   2.715
 2164SOL    HW1 7084   2.933   4.983   2.653
 2164SOL    HW2 7085   2.990   5.121   2.677
 2165SOL     OW 7086   2.176   4.536   2.812
 2165SOL    HW1 7087   2.269   4.559   2.809
 2165SOL    HW2 7088   2.174   4.450   2.852
 2166SOL     OW 7089   2.198   4.240   2.870
 2166SOL    HW1 7090   2.159   4.155   2.852
 2166SOL    HW2 7091   2.273   4.245   2.810
 2167SOL     OW 7092   3.011   3.939   3.339
 2167SOL    HW1 7093   3.031   4.000   3.410
 2167SOL    HW2 7094   3.052   3.978   3.262
 2168SOL     OW 7095   1.866   5.049   2.058
 2168SOL    HW1 7096   1.778   5.061   2.025
 2168SOL    HW2 7097   1.870   4.958   2.085
 2169SOL     OW 7098   2.368   5.290   2.775
 2169SOL    HW1 7099   2.428   5.365   2.770
 2169SOL    HW2 7100   2.409   5.223   2.720
 2170SOL     OW 7101   2.858   4.521   3.093
 2170SOL    HW1 7102   2.902   4.492   3.173
 2170SOL    HW2 7103   2.768   4.489   3.103
 2171SOL     OW 7104   1.899   4.266   2.978
 2171SOL    HW1 7105   1.982   4.243   2.935
 2171SOL    HW2 7106   1.922   4.277   3.070
 2172SOL     OW 7107   2.677   4.293   2.206
 2172SOL    HW1 7108   2.680   4.215   2.150
 2172SOL    HW2 7109   2.596   4.338   2.180
 2173SOL     OW 7110   3.507   4.324   3.056
 2173SOL    HW1 7111   3.492   4.263   3.129
 2173SOL    HW2 7112   3.593   4.301   3.023
 2174SOL     OW 7113   2.140   5.266   0.050
 2174SOL    HW1 7114   2.092   5.334   0.097
 2174SOL    HW2 7115   2.104   5.184   0.083
 2175SOL     OW 7116   2.548   4.181   3.129
 2175SOL    HW1 7117   2.502   4.105   3.095
 2175SOL    HW2 7118   2.553   4.241   3.054
 2176SOL     OW 7119   2.333   4.220   2.052
 2176SOL    HW1 7120   2.389   4.296   2.066
 2176SOL    HW2 7121   2.244   4.255   2.050
 2177SOL     OW 7122   2.018   4.863   3.330
 2177SOL    HW1 7123   2.029   4.803   3.404
 2177SOL    HW2 7124   2.031   4.807   3.253
 2178SOL     OW 7125   3.198   4.778   3.093
 2178SOL    HW1 7126   3.225   4.718   3.024
 2178SOL    HW2 7127   3.119   4.821   3.058
 2179SOL     OW 7128   3.167   4.579   2.171
 2179SOL    HW1 7129   3.086   4.550   2.214
 2179SOL    HW2 7130   3.150   4.566   2.078
 2180SOL     OW 7131   3.617   5.442   3.021
 2180SOL    HW1 7132   3.654   5.486   2.945
 2180SOL    HW2 7133   3.590   5.356   2.990
 2181SOL     OW 7134   3.112   5.442   2.989
 2181SOL    HW1 7135   3.192   5.462   2.941
 2181SOL    HW2 7136   3.113   5.346   2.999
 2182SOL     OW 7137   1.946   4.985   2.879
 2182SOL    HW1 7138   1.935   4.993   2.974
 2182SOL    HW2 7139   1.868   4.940   2.849
 2183SOL     OW 7140   3.583   3.862   2.381
 2183SOL    HW1 7141   3.654   3.846   2.319
 2183SOL    HW2 7142   3.564   3.775   2.418
 2184SOL     OW 7143   3.250   5.295   2.341
 2184SOL    HW1 7144   3.320   5.308   2.278
 2184SOL    HW2 7145   3.215   5.382   2.357
 2185SOL     OW 7146   3.139   4.647   2.533
 2185SOL    HW1 7147   3.210   4.582   2.535
 2185SOL    HW2 7148   3.174   4.719   2.481
 2186SOL     OW 7149   2.688   4.995   3.290
 2186SOL    HW1 7150   2.674   5.026   3.380
 2186SOL    HW2 7151   2.607   5.017   3.244
 2187SOL     OW 7152   2.546   5.328   2.012
 2187SOL    HW1 7153   2.533   5.336   1.918
 2187SOL    HW2 7154   2.494   5.251   2.037
 2188SOL     OW 7155   3.702   3.897   2.830
 2188SOL    HW1 7156   3.732   3.813   2.795
 2188SOL    HW2 7157   3.614   3.908   2.793
 2189SOL     OW 7158   2.130   4.045   2.583
 2189SOL    HW1 7159   2.047   4.084   2.553
 2189SOL    HW2 7160   2.118   4.034   2.677
 2190SOL     OW 7161   3.060   5.329   1.891
 2190SOL    HW1 7162   3.057   5.240   1.923
 2190SOL    HW2 7163   2.993   5.333   1.823
 2191SOL     OW 7164   2.684   4.729   3.231
 2191SOL    HW1 7165   2.726   4.729   3.145
 2191SOL    HW2 7166   2.691   4.820   3.261
 2192SOL     OW 7167   2.778   4.634   2.151
 2192SOL    HW1 7168   2.841   4.666   2.086
 2192SOL    HW2 7169   2.820   4.559   2.192
 2193SOL     OW 7170   2.234   5.022   3.368
 2193SOL    HW1 7171   2.224   5.099   3.312
 2193SOL    HW2 7172   2.160   4.966   3.346
 2194SOL     OW 7173   3.474   5.008   3.147
 2194SOL    HW1 7174   3.533   5.005   3.223
 2194SOL    HW2 7175   3.414   5.081   3.166
 2195SOL     OW 7176   2.904   4.825   2.563
 2195SOL    HW1 7177   2.836   4.775   2.606
 2195SOL    HW2 7178   2.962   4.759   2.525
 2196SOL     OW 7179   2.879   3.963   2.828
 2196SOL    HW1 7180   2.871   3.917   2.745
 2196SOL    HW2 7181   2.874   3.893   2.894
 2197SOL     OW 7182   2.450   5.203   2.348
 2197SOL    HW1 7183   2.495   5.163   2.274
 2197SOL    HW2 7184   2.419   5.288   2.315
 2198SOL     OW 7185   3.572   4.111   3.242
 2198SOL    HW1 7186   3.644   4.174   3.248
 2198SOL    HW2 7187   3.607   4.041   3.186
 2199SOL     OW 7188   2.118   5.075   2.146
 2199SOL    HW1 7189   2.024   5.071   2.128
 2199SOL    HW2 7190   2.124   5.112   2.234
 2200SOL     OW 7191   1.976   4.724   0.026
 2200SOL    HW1 7192   1.897   4.715   0.080
 2200SOL    HW2 7193   2.049   4.714   0.087
 2201SOL     OW 7194   2.532   3.917   3.361
 2201SOL    HW1 7195   2.615   3.906   3.314
 2201SOL    HW2 7196   2.557   3.947   3.448
 2202SOL     OW 7197   1.936   4.069   1.898
 2202SOL    HW1 7198   1.851   4.042   1.863
 2202SOL    HW2 7199   1.964   4.141   1.842
 2203SOL     OW 7200   3.295   4.575   3.263
 2203SOL    HW1 7201   3.248   4.637   3.207
 2203SOL    HW2 7202   3.387   4.587   3.240
 2204SOL     OW 7203   1.934   3.886   2.179
 2204SOL    HW1 7204   1.919   3.965   2.127
 2204SOL    HW2 7205   2.020   3.854   2.151
 2205SOL     OW 7206   3.043   5.066   1.979
 2205SOL    HW1 7207   2.951   5.040   1.985
 2205SOL    HW2 7208   3.074   5.066   2.070
 2206SOL     OW 7209   2.477   4.560   3.292
 2206SOL    HW1 7210   2.533   4.637   3.278
 2206SOL    HW2 7211   2.538   4.487   3.300
 2207SOL     OW 7212   2.584   4.293   0.018
 2207SOL    HW1 7213   2.593   4.352   0.093
 2207SOL    HW2 7214   2.631   4.214   0.043
 2208SOL     OW 7215   2.255   5.463   3.429
 2208SOL    HW1 7216   2.168   5.500   3.417
 2208SOL    HW2 7217   2.240   5.373   3.458
 2209SOL     OW 7218   3.536   4.607   3.118
 2209SOL    HW1 7219   3.520   4.522   3.077
 2209SOL    HW2 7220   3.531   4.670   3.046
 2210SOL     OW 7221   3.085   4.046   2.316
 2210SOL    HW1 7222   3.148   3.975   2.307
 2210SOL    HW2 7223   3.111   4.092   2.396
 2211SOL     OW 7224   2.455   4.468   2.523
 2211SOL    HW1 7225   2.497   4.552   2.504
 2211SOL    HW2 7226   2.379   4.465   2.465
 2212SOL     OW 7227   3.606   4.658   3.376
 2212SOL    HW1 7228   3.612   4.752   3.389
 2212SOL    HW2 7229   3.588   4.648   3.282
 2213SOL     OW 7230   2.719   5.097   1.883
 2213SOL    HW1 7231   2.682   5.116   1.969
 2213SOL    HW2 7232   2.753   5.181   1.853
 2214SOL     OW 7233   2.725   4.685   2.720
 2214SOL    HW1 7234   2.776   4.617   2.765
 2214SOL    HW2 7235   2.695   4.743   2.790
 2215SOL     OW 7236   2.942   4.710   1.950
 2215SOL    HW1 7237   2.923   4.760   1.870
 2215SOL    HW2 7238   3.020   4.658   1.928
 2216SOL     OW 7239   3.723   5.296   2.709
 2216SOL    HW1 7240   3.646   5.280   2.653
 2216SOL    HW2 7241   3.719   5.226   2.774
 2217SOL     OW 7242   1.946   4.964   2.521
 2217SOL    HW1 7243   1.943   4.914   2.602
 2217SOL    HW2 7244   2.018   4.925   2.471
 2218SOL     OW 7245   2.509   5.122   3.464
 2218SOL    HW1 7246   2.453   5.063   3.513
 2218SOL    HW2 7247   2.523   5.198   3.521
 2219SOL     OW 7248   3.680   3.912   3.098
 2219SOL    HW1 7249   3.685   3.819   3.121
 2219SOL    HW2 7250   3.688   3.914   3.003
 2220SOL     OW 7251   2.291   4.154   2.383
 2220SOL    HW1 7252   2.318   4.082   2.327
 2220SOL    HW2 7253   2.249   4.112   2.458
 2221SOL     OW 7254   3.567   5.197   2.956
 2221SOL    HW1 7255   3.478   5.173   2.929
 2221SOL    HW2 7256   3.583   5.143   3.034
 2222SOL     OW 7257   2.184   4.272   3.148
 2222SOL    HW1 7258   2.235   4.217   3.208
 2222SOL    HW2 7259   2.213   4.247   3.061
 2223SOL     OW 7260   2.689   5.283   2.548
 2223SOL    HW1 7261   2.687   5.340   2.472
 2223SOL    HW2 7262   2.602   5.244   2.552
 2224SOL     OW 7263   3.292   3.943   2.979
 2224SOL    HW1 7264   3.330   3.873   3.030
 2224SOL    HW2 7265   3.241   3.994   3.042
 2225SOL     OW 7266   2.866   3.750   3.014
 2225SOL    HW1 7267   2.811   3.680   2.978
 2225SOL    HW2 7268   2.955   3.714   3.013
 2226SOL     OW 7269   2.635   5.053   2.164
 2226SOL    HW1 7270   2.594   4.968   2.178
 2226SOL    HW2 7271   2.717   5.049   2.213
 2227SOL     OW 7272   2.481   5.293   3.145
 2227SOL    HW1 7273   2.485   5.369   3.203
 2227SOL    HW2 7274   2.569   5.285   3.109
 2228SOL     OW 7275   3.215   3.774   2.026
 2228SOL    HW1 7276   3.236   3.725   1.947
 2228SOL    HW2 7277   3.128   3.743   2.052
 2229SOL     OW 7278   3.162   4.182   2.549
 2229SOL    HW1 7279   3.105   4.258   2.558
 2229SOL    HW2 7280   3.164   4.143   2.637
 2230SOL     OW 7281   3.452   3.936   2.741
 2230SOL    HW1 7282   3.378   3.948   2.800
 2230SOL    HW2 7283   3.452   4.015   2.687
 2231SOL     OW 7284   1.904   4.800   2.164
 2231SOL    HW1 7285   1.998   4.789   2.151
 2231SOL    HW2 7286   1.872   4.714   2.189
 2232SOL     OW 7287   3.955   0.614   0.130
 2232SOL    HW1 7288   3.863   0.626   0.152
 2232SOL    HW2 7289   3.956   0.597   0.036
 2233SOL     OW 7290   3.946   0.278   0.990
 2233SOL    HW1 7291   3.979   0.254   1.077
 2233SOL    HW2 7292   3.859   0.238   0.986
 2234SOL     OW 7293   3.734   0.379   0.641
 2234SOL    HW1 7294   3.650   0.404   0.681
 2234SOL    HW2 7295   3.713   0.302   0.588
 2235SOL     OW 7296   5.280   1.510   0.699
 2235SOL    HW1 7297   5.232   1.498   0.781
 2235SOL    HW2 7298   5.211   1.520   0.632
 2236SOL     OW 7299   4.854   0.701   0.710
 2236SOL    HW1 7300   4.907   0.779   0.693
 2236SOL    HW2 7301   4.805   0.722   0.790
 2237SOL     OW 7302   5.492   0.604   0.227
 2237SOL    HW1 7303   5.454   0.603   0.139
 2237SOL    HW2 7304   5.450   0.531   0.272
 2238SOL     OW 7305   4.578   0.791   1.821
 2238SOL    HW1 7306   4.571   0.864   1.883
 2238SOL    HW2 7307   4.602   0.833   1.738
 2239SOL     OW 7308   4.410   1.011   0.655
 2239SOL    HW1 7309   4.473   0.994   0.725
 2239SOL    HW2 7310   4.340   1.062   0.696
 2240SOL     OW 7311   4.424   1.154   1.806
 2240SOL    HW1 7312   4.474   1.234   1.823
 2240SOL    HW2 7313   4.340   1.186   1.773
 2241SOL     OW 7314   4.175   0.400   1.495
 2241SOL    HW1 7315   4.247   0.337   1.500
 2241SOL    HW2 7316   4.096   0.348   1.504
 2242SOL     OW 7317   5.336   0.451   0.735
 2242SOL    HW1 7318   5.259   0.485   0.689
 2242SOL    HW2 7319   5.366   0.524   0.788
 2243SOL     OW 7320   3.947   1.712   0.477
 2243SOL    HW1 7321   3.976   1.786   0.530
 2243SOL    HW2 7322   4.008   1.710   0.403
 2244SOL     OW 7323   4.852   1.343   1.692
 2244SOL    HW1 7324   4.896   1.334   1.777
 2244SOL    HW2 7325   4.805   1.260   1.682
 2245SOL     OW 7326   3.951   1.437   0.534
 2245SOL    HW1 7327   3.935   1.531   0.543
 2245SOL    HW2 7328   3.885   1.396   0.590
 2246SOL     OW 7329   3.968   1.093   0.891
 2246SOL    HW1 7330   3.974   1.007   0.933
 2246SOL    HW2 7331   3.907   1.142   0.946
 2247SOL     OW 7332   4.354   1.792   1.480
 2247SOL    HW1 7333   4.261   1.778   1.496
 2247SOL    HW2 7334   4.364   1.887   1.474
 2248SOL     OW 7335   4.320   0.970   0.135
 2248SOL    HW1 7336   4.340   1.035   0.068
 2248SOL    HW2 7337   4.373   0.996   0.211
 2249SOL     OW 7338   5.328   0.118   1.472
 2249SOL    HW1 7339   5.301   0.189   1.413
 2249SOL    HW2 7340   5.312   0.153   1.560
 2250SOL     OW 7341   3.841   0.647   0.561
 2250SOL    HW1 7342   3.808   0.559   0.580
 2250SOL    HW2 7343   3.832   0.695   0.644
 2251SOL     OW 7344   5.563   1.768   0.350
 2251SOL    HW1 7345   5.617   1.738   0.423
 2251SOL    HW2 7346   5.597   1.855   0.329
 2252SOL     OW 7347   3.751   1.610   0.139
 2252SOL    HW1 7348   3.725   1.518   0.153
 2252SOL    HW2 7349   3.719   1.655   0.218
 2253SOL     OW 7350   5.415   0.920   0.629
 2253SOL    HW1 7351   5.504   0.887   0.616
 2253SOL    HW2 7352   5.397   0.972   0.551
 2254SOL     OW 7353   5.369   1.106   0.434
 2254SOL    HW1 7354   5.449   1.122   0.383
 2254SOL    HW2 7355   5.375   1.167   0.508
 2255SOL     OW 7356   3.843   0.740   1.588
 2255SOL    HW1 7357   3.931   0.746   1.624
 2255SOL    HW2 7358   3.809   0.829   1.589
 2256SOL     OW 7359   4.337   1.371   0.727
 2256SOL    HW1 7360   4.286   1.290   0.735
 2256SOL    HW2 7361   4.314   1.405   0.641
 2257SOL     OW 7362   4.999   1.194   1.447
 2257SOL    HW1 7363   5.058   1.164   1.378
 2257SOL    HW2 7364   5.057   1.226   1.516
 2258SOL     OW 7365   4.535   0.003   0.493
 2258SOL    HW1 7366   4.572   0.091   0.488
 2258SOL    HW2 7367   4.441   0.017   0.499
 2259SOL     OW 7368   3.920   0.971   1.258
 2259SOL    HW1 7369   4.003   0.924   1.251
 2259SOL    HW2 7370   3.853   0.904   1.242
 2260SOL     OW 7371   5.250   0.996   0.195
 2260SOL    HW1 7372   5.186   0.929   0.219
 2260SOL    HW2 7373   5.291   1.021   0.278
 2261SOL     OW 7374   4.907   1.801   1.611
 2261SOL    HW1 7375   4.945   1.844   1.535
 2261SOL    HW2 7376   4.917   1.708   1.594
 2262SOL     OW 7377   4.053   0.255   1.804
 2262SOL    HW1 7378   4.108   0.332   1.815
 2262SOL    HW2 7379   3.965   0.284   1.831
 2263SOL     OW 7380   5.168   1.423   0.924
 2263SOL    HW1 7381   5.143   1.428   1.017
 2263SOL    HW2 7382   5.171   1.330   0.904
 2264SOL     OW 7383   5.388   1.723   0.576
 2264SOL    HW1 7384   5.357   1.697   0.490
 2264SOL    HW2 7385   5.363   1.651   0.634
 2265SOL     OW 7386   4.321   0.726   0.262
 2265SOL    HW1 7387   4.333   0.804   0.207
 2265SOL    HW2 7388   4.255   0.752   0.326
 2266SOL     OW 7389   5.007   0.342   0.933
 2266SOL    HW1 7390   4.918   0.307   0.938
 2266SOL    HW2 7391   5.056   0.294   0.999
 2267SOL     OW 7392   5.303   1.665   0.309
 2267SOL    HW1 7393   5.390   1.706   0.306
 2267SOL    HW2 7394   5.284   1.643   0.218
 2268SOL     OW 7395   4.523   0.612   1.457
 2268SOL    HW1 7396   4.490   0.596   1.545
 2268SOL    HW2 7397   4.475   0.550   1.402
 2269SOL     OW 7398   5.118   0.472   1.676
 2269SOL    HW1 7399   5.111   0.515   1.761
 2269SOL    HW2 7400   5.186   0.406   1.687
 2270SOL     OW 7401   4.687   0.889   1.578
 2270SOL    HW1 7402   4.739   0.816   1.544
 2270SOL    HW2 7403   4.640   0.923   1.501
 2271SOL     OW 7404   4.717   0.414   1.240
 2271SOL    HW1 7405   4.638   0.438   1.288
 2271SOL    HW2 7406   4.685   0.362   1.167
 2272SOL     OW 7407   4.772   0.699   0.428
 2272SOL    HW1 7408   4.785   0.693   0.523
 2272SOL    HW2 7409   4.689   0.653   0.413
 2273SOL     OW 7410   3.810   0.817   0.776
 2273SOL    HW1 7411   3.896   0.808   0.817
 2273SOL    HW2 7412   3.774   0.898   0.812
 2274SOL     OW 7413   3.846   1.806   1.571
 2274SOL    HW1 7414   3.844   1.811   1.667
 2274SOL    HW2 7415   3.776   1.866   1.543
 2275SOL     OW 7416   4.595   0.354   0.193
 2275SOL    HW1 7417   4.660   0.401   0.141
 2275SOL    HW2 7418   4.603   0.263   0.165
 2276SOL     OW 7419   5.438   0.581   1.830
 2276SOL    HW1 7420   5.408   0.663   1.790
 2276SOL    HW2 7421   5.449   0.522   1.755
 2277SOL     OW 7422   5.094   1.143   0.543
 2277SOL    HW1 7423   5.171   1.124   0.490
 2277SOL    HW2 7424   5.044   1.206   0.491
 2278SOL     OW 7425   4.269   0.196   0.884
 2278SOL    HW1 7426   4.276   0.203   0.979
 2278SOL    HW2 7427   4.278   0.286   0.852
 2279SOL     OW 7428   4.735   1.450   0.476
 2279SOL    HW1 7429   4.690   1.520   0.429
 2279SOL    HW2 7430   4.725   1.474   0.568
 2280SOL     OW 7431   4.079   1.803   0.852
 2280SOL    HW1 7432   4.121   1.718   0.864
 2280SOL    HW2 7433   4.150   1.866   0.858
 2281SOL     OW 7434   5.520   1.060   0.873
 2281SOL    HW1 7435   5.462   1.052   0.797
 2281SOL    HW2 7436   5.461   1.084   0.945
 2282SOL     OW 7437   4.039   0.951   0.225
 2282SOL    HW1 7438   4.128   0.972   0.197
 2282SOL    HW2 7439   4.029   0.857   0.205
 2283SOL     OW 7440   5.193   0.732   0.727
 2283SOL    HW1 7441   5.181   0.683   0.808
 2283SOL    HW2 7442   5.266   0.791   0.744
 2284SOL     OW 7443   4.188   1.262   1.745
 2284SOL    HW1 7444   4.154   1.265   1.655
 2284SOL    HW2 7445   4.110   1.258   1.800
 2285SOL     OW 7446   4.828   1.784   0.234
 2285SOL    HW1 7447   4.775   1.728   0.290
 2285SOL    HW2 7448   4.860   1.725   0.166
 2286SOL     OW 7449   3.929   0.308   1.496
 2286SOL    HW1 7450   3.842   0.348   1.488
 2286SOL    HW2 7451   3.915   0.233   1.555
 2287SOL     OW 7452   5.352   1.378   0.096
 2287SOL    HW1 7453   5.313   1.463   0.073
 2287SOL    HW2 7454   5.287   1.314   0.067
 2288SOL     OW 7455   4.191   1.739   0.324
 2288SOL    HW1 7456   4.224   1.791   0.397
 2288SOL    HW2 7457   4.266   1.728   0.265
 2289SOL     OW 7458   5.122   0.114   0.427
 2289SOL    HW1 7459   5.108   0.084   0.338
 2289SOL    HW2 7460   5.217   0.120   0.436
 2290SOL     OW 7461   4.670   1.699   0.894
 2290SOL    HW1 7462   4.735   1.635   0.920
 2290SOL    HW2 7463   4.613   1.652   0.833
 2291SOL     OW 7464   4.110   0.697   0.479
 2291SOL    HW1 7465   4.141   0.607   0.482
 2291SOL    HW2 7466   4.017   0.691   0.503
 2292SOL     OW 7467   5.265   0.228   1.724
 2292SOL    HW1 7468   5.270   0.250   1.818
 2292SOL    HW2 7469   5.202   0.156   1.719
 2293SOL     OW 7470   4.337   0.137   0.105
 2293SOL    HW1 7471   4.422   0.097   0.122
 2293SOL    HW2 7472   4.309   0.099   0.022
 2294SOL     OW 7473   4.498   0.271   1.750
 2294SOL    HW1 7474   4.566   0.209   1.777
 2294SOL    HW2 7475   4.437   0.273   1.824
 2295SOL     OW 7476   5.070   0.589   1.432
 2295SOL    HW1 7477   5.098   0.554   1.516
 2295SOL    HW2 7478   5.102   0.680   1.433
 2296SOL     OW 7479   4.526   1.411   0.909
 2296SOL    HW1 7480   4.614   1.396   0.874
 2296SOL    HW2 7481   4.468   1.392   0.835
 2297SOL     OW 7482   4.649   0.508   0.903
 2297SOL    HW1 7483   4.626   0.496   0.811
 2297SOL    HW2 7484   4.687   0.424   0.929
 2298SOL     OW 7485   4.271   0.061   0.510
 2298SOL    HW1 7486   4.188   0.059   0.557
 2298SOL    HW2 7487   4.265   0.138   0.454
 2299SOL     OW 7488   5.150   1.196   0.033
 2299SOL    HW1 7489   5.187   1.124   0.084
 2299SOL    HW2 7490   5.065   1.213   0.075
 2300SOL     OW 7491   4.021   0.054   0.193
 2300SOL    HW1 7492   4.076   0.122   0.153
 2300SOL    HW2 7493   4.082  -0.016   0.215
 2301SOL     OW 7494   4.659   0.242   0.472
 2301SOL    HW1 7495   4.624   0.283   0.393
 2301SOL    HW2 7496   4.754   0.252   0.463
 2302SOL     OW 7497   4.803   0.679   1.459
 2302SOL    HW1 7498   4.729   0.618   1.467
 2302SOL    HW2 7499   4.880   0.622   1.449
 2303SOL     OW 7500   4.949   1.574   0.795
 2303SOL    HW1 7501   4.972   1.640   0.730
 2303SOL    HW2 7502   5.023   1.572   0.855
 2304SOL     OW 7503   4.187   1.142   0.742
 2304SOL    HW1 7504   4.112   1.130   0.800
 2304SOL    HW2 7505   4.153   1.127   0.654
 2305SOL     OW 7506   4.996   1.796   0.597
 2305SOL    HW1 7507   5.037   1.861   0.539
 2305SOL    HW2 7508   4.938   1.848   0.653
 2306SOL     OW 7509   4.745   0.544   0.034
 2306SOL    HW1 7510   4.725   0.623  -0.016
 2306SOL    HW2 7511   4.820   0.568   0.088
 2307SOL     OW 7512   3.797   0.559   1.387
 2307SOL    HW1 7513   3.888   0.554   1.358
 2307SOL    HW2 7514   3.797   0.627   1.455
 2308SOL     OW 7515   4.289   0.228   1.156
 2308SOL    HW1 7516   4.323   0.145   1.190
 2308SOL    HW2 7517   4.199   0.232   1.189
 2309SOL     OW 7518   4.595   0.459   0.641
 2309SOL    HW1 7519   4.551   0.516   0.577
 2309SOL    HW2 7520   4.611   0.378   0.593
 2310SOL     OW 7521   4.733   0.048   0.763
 2310SOL    HW1 7522   4.674   0.046   0.688
 2310SOL    HW2 7523   4.717  -0.035   0.808
 2311SOL     OW 7524   5.162   1.164   0.859
 2311SOL    HW1 7525   5.097   1.093   0.856
 2311SOL    HW2 7526   5.176   1.187   0.767
 2312SOL     OW 7527   5.195   0.596   0.987
 2312SOL    HW1 7528   5.153   0.510   0.995
 2312SOL    HW2 7529   5.258   0.599   1.059
 2313SOL     OW 7530   5.576   0.823   0.378
 2313SOL    HW1 7531   5.626   0.766   0.436
 2313SOL    HW2 7532   5.544   0.766   0.309
 2314SOL     OW 7533   4.218   1.392   0.159
 2314SOL    HW1 7534   4.147   1.370   0.220
 2314SOL    HW2 7535   4.173   1.417   0.079
 2315SOL     OW 7536   5.391   1.268   0.659
 2315SOL    HW1 7537   5.485   1.282   0.663
 2315SOL    HW2 7538   5.353   1.354   0.675
 2316SOL     OW 7539   5.107   0.572   0.071
 2316SOL    HW1 7540   5.058   0.552   0.150
 2316SOL    HW2 7541   5.195   0.538   0.088
 2317SOL     OW 7542   4.252   0.262   0.327
 2317SOL    HW1 7543   4.284   0.209   0.254
 2317SOL    HW2 7544   4.240   0.349   0.290
 2318SOL     OW 7545   5.480   1.224   1.586
 2318SOL    HW1 7546   5.570   1.194   1.573
 2318SOL    HW2 7547   5.488   1.316   1.610
 2319SOL     OW 7548   5.322   1.631   1.640
 2319SOL    HW1 7549   5.337   1.665   1.552
 2319SOL    HW2 7550   5.403   1.585   1.663
 2320SOL     OW 7551   4.637   0.096   1.404
 2320SOL    HW1 7552   4.660   0.074   1.314
 2320SOL    HW2 7553   4.717   0.137   1.439
 2321SOL     OW 7554   4.708   1.110   1.725
 2321SOL    HW1 7555   4.614   1.127   1.731
 2321SOL    HW2 7556   4.715   1.038   1.663
 2322SOL     OW 7557   4.431   1.058   0.372
 2322SOL    HW1 7558   4.420   1.049   0.467
 2322SOL    HW2 7559   4.509   1.005   0.353
 2323SOL     OW 7560   4.138   0.813   1.251
 2323SOL    HW1 7561   4.211   0.823   1.313
 2323SOL    HW2 7562   4.101   0.727   1.271
 2324SOL     OW 7563   4.996   0.383   1.265
 2324SOL    HW1 7564   5.022   0.458   1.318
 2324SOL    HW2 7565   4.908   0.403   1.235
 2325SOL     OW 7566   4.082   1.103   0.496
 2325SOL    HW1 7567   4.084   1.178   0.438
 2325SOL    HW2 7568   4.089   1.027   0.438
 2326SOL     OW 7569   4.284   0.539   0.864
 2326SOL    HW1 7570   4.303   0.598   0.791
 2326SOL    HW2 7571   4.340   0.570   0.935
 2327SOL     OW 7572   4.972   1.346   0.392
 2327SOL    HW1 7573   5.024   1.421   0.423
 2327SOL    HW2 7574   4.884   1.363   0.423
 2328SOL     OW 7575   5.310   0.633   0.474
 2328SOL    HW1 7576   5.270   0.691   0.538
 2328SOL    HW2 7577   5.351   0.691   0.410
 2329SOL     OW 7578   4.133   0.747   1.600
 2329SOL    HW1 7579   4.196   0.794   1.545
 2329SOL    HW2 7580   4.175   0.663   1.618
 2330SOL     OW 7581   5.314   0.773   1.672
 2330SOL    HW1 7582   5.229   0.817   1.668
 2330SOL    HW2 7583   5.368   0.820   1.609
 2331SOL     OW 7584   4.728   0.120   1.770
 2331SOL    HW1 7585   4.760   0.191   1.716
 2331SOL    HW2 7586   4.760   0.040   1.727
 2332SOL     OW 7587   4.222   0.046   1.746
 2332SOL    HW1 7588   4.182  -0.007   1.677
 2332SOL    HW2 7589   4.159   0.117   1.761
 2333SOL     OW 7590   4.305   0.870   1.032
 2333SOL    HW1 7591   4.328   0.962   1.023
 2333SOL    HW2 7592   4.244   0.867   1.107
 2334SOL     OW 7593   5.087   0.859   1.047
 2334SOL    HW1 7594   5.013   0.862   0.987
 2334SOL    HW2 7595   5.117   0.768   1.044
 2335SOL     OW 7596   4.936   0.528   0.274
 2335SOL    HW1 7597   4.940   0.449   0.329
 2335SOL    HW2 7598   4.896   0.594   0.331
 2336SOL     OW 7599   4.032   0.209   1.241
 2336SOL    HW1 7600   3.998   0.247   1.323
 2336SOL    HW2 7601   3.999   0.119   1.241
 2337SOL     OW 7602   4.454   0.634   1.063
 2337SOL    HW1 7603   4.520   0.612   0.997
 2337SOL    HW2 7604   4.426   0.723   1.041
 2338SOL     OW 7605   5.457   0.952   1.851
 2338SOL    HW1 7606   5.405   0.918   1.779
 2338SOL    HW2 7607   5.394   0.969   1.921
 2339SOL     OW 7608   4.022   0.062   0.624
 2339SOL    HW1 7609   4.016   0.152   0.654
 2339SOL    HW2 7610   4.029   0.010   0.704
 2340SOL     OW 7611   5.334   0.369   0.370
 2340SOL    HW1 7612   5.359   0.305   0.437
 2340SOL    HW2 7613   5.308   0.447   0.420
 2341SOL     OW 7614   4.746   0.764   0.965
 2341SOL    HW1 7615   4.756   0.779   1.059
 2341SOL    HW2 7616   4.721   0.672   0.958
 2342SOL     OW 7617   4.713   1.569   1.713
 2342SOL    HW1 7618   4.683   1.611   1.632
 2342SOL    HW2 7619   4.748   1.484   1.684
 2343SOL     OW 7620   5.582   1.520   1.611
 2343SOL    HW1 7621   5.610   1.521   1.519
 2343SOL    HW2 7622   5.661   1.540   1.660
 2344SOL     OW 7623   4.075   0.912   1.806
 2344SOL    HW1 7624   4.157   0.935   1.850
 2344SOL    HW2 7625   4.101   0.854   1.735
 2345SOL     OW 7626   5.268   0.271   0.123
 2345SOL    HW1 7627   5.199   0.208   0.145
 2345SOL    HW2 7628   5.289   0.313   0.207
 2346SOL     OW 7629   5.027   0.831   0.036
 2346SOL    HW1 7630   5.059   0.741   0.042
 2346SOL    HW2 7631   5.042   0.855  -0.056
 2347SOL     OW 7632   4.789   1.338   0.845
 2347SOL    HW1 7633   4.797   1.260   0.790
 2347SOL    HW2 7634   4.855   1.398   0.811
 2348SOL     OW 7635   4.038   0.814   0.952
 2348SOL    HW1 7636   4.131   0.834   0.946
 2348SOL    HW2 7637   4.035   0.726   0.989
 2349SOL     OW 7638   4.059   0.517   1.007
 2349SOL    HW1 7639   4.021   0.431   0.990
 2349SOL    HW2 7640   4.135   0.521   0.949
 2350SOL     OW 7641   4.860   0.382   1.677
 2350SOL    HW1 7642   4.818   0.437   1.743
 2350SOL    HW2 7643   4.950   0.416   1.672
 2351SOL     OW 7644   4.878   0.207   1.473
 2351SOL    HW1 7645   4.877   0.270   1.545
 2351SOL    HW2 7646   4.915   0.255   1.399
 2352SOL     OW 7647   3.729   1.329   0.199
 2352SOL    HW1 7648   3.641   1.341   0.163
 2352SOL    HW2 7649   3.735   1.236   0.219
 2353SOL     OW 7650   3.811   1.806   0.907
 2353SOL    HW1 7651   3.779   1.717   0.891
 2353SOL    HW2 7652   3.906   1.799   0.894
 2354SOL     OW 7653   4.225   1.573   0.898
 2354SOL    HW1 7654   4.295   1.636   0.915
 2354SOL    HW2 7655   4.269   1.495   0.866
 2355SOL     OW 7656   4.719   0.798   1.232
 2355SOL    HW1 7657   4.765   0.769   1.311
 2355SOL    HW2 7658   4.630   0.763   1.241
 2356SOL     OW 7659   3.762   0.541   1.115
 2356SOL    HW1 7660   3.845   0.519   1.073
 2356SOL    HW2 7661   3.783   0.552   1.207
 2357SOL     OW 7662   3.915   0.517   1.723
 2357SOL    HW1 7663   3.969   0.482   1.653
 2357SOL    HW2 7664   3.861   0.584   1.682
 2358SOL     OW 7665   5.102   0.944   1.662
 2358SOL    HW1 7666   5.119   1.038   1.669
 2358SOL    HW2 7667   5.097   0.928   1.568
 2359SOL     OW 7668   4.539   0.571   0.344
 2359SOL    HW1 7669   4.542   0.492   0.289
 2359SOL    HW2 7670   4.455   0.612   0.322
 2360SOL     OW 7671   5.370   0.603   1.196
 2360SOL    HW1 7672   5.352   0.541   1.266
 2360SOL    HW2 7673   5.456   0.577   1.162
 2361SOL     OW 7674   3.976   1.554   1.734
 2361SOL    HW1 7675   3.948   1.616   1.801
 2361SOL    HW2 7676   3.969   1.468   1.776
 2362SOL     OW 7677   4.408   0.459   1.267
 2362SOL    HW1 7678   4.365   0.381   1.234
 2362SOL    HW2 7679   4.415   0.517   1.191
 2363SOL     OW 7680   4.649   1.698   1.491
 2363SOL    HW1 7681   4.621   1.661   1.407
 2363SOL    HW2 7682   4.676   1.788   1.470
 2364SOL     OW 7683   4.194   0.495   0.199
 2364SOL    HW1 7684   4.250   0.572   0.202
 2364SOL    HW2 7685   4.105   0.530   0.190
 2365SOL     OW 7686   3.867   1.129   1.471
 2365SOL    HW1 7687   3.890   1.073   1.545
 2365SOL    HW2 7688   3.891   1.079   1.394
 2366SOL     OW 7689   5.030   0.847   0.311
 2366SOL    HW1 7690   4.946   0.828   0.351
 2366SOL    HW2 7691   5.014   0.846   0.217
 2367SOL     OW 7692   4.407   1.661   1.722
 2367SOL    HW1 7693   4.355   1.742   1.724
 2367SOL    HW2 7694   4.459   1.669   1.642
 2368SOL     OW 7695   4.635   0.096   0.126
 2368SOL    HW1 7696   4.686   0.075   0.048
 2368SOL    HW2 7697   4.670   0.038   0.194
 2369SOL     OW 7698   5.442   0.136   0.509
 2369SOL    HW1 7699   5.523   0.124   0.460
 2369SOL    HW2 7700   5.432   0.055   0.560
 2370SOL     OW 7701   5.113   1.569   0.479
 2370SOL    HW1 7702   5.174   1.595   0.410
 2370SOL    HW2 7703   5.071   1.650   0.506
 2371SOL     OW 7704   3.863   1.792   1.842
 2371SOL    HW1 7705   3.811   1.730   1.894
 2371SOL    HW2 7706   3.896   1.855   1.906
 2372SOL     OW 7707   5.001   0.922   0.672
 2372SOL    HW1 7708   5.072   0.858   0.671
 2372SOL    HW2 7709   5.035   0.995   0.619
 2373SOL     OW 7710   4.539   1.247   1.457
 2373SOL    HW1 7711   4.535   1.305   1.533
 2373SOL    HW2 7712   4.488   1.293   1.390
 2374SOL     OW 7713   4.399   1.612   0.160
 2374SOL    HW1 7714   4.394   1.632   0.067
 2374SOL    HW2 7715   4.348   1.532   0.171
 2375SOL     OW 7716   5.567   0.155   0.966
 2375SOL    HW1 7717   5.594   0.087   0.904
 2375SOL    HW2 7718   5.480   0.182   0.935
 2376SOL     OW 7719   3.992   0.321   0.720
 2376SOL    HW1 7720   3.909   0.360   0.692
 2376SOL    HW2 7721   3.982   0.310   0.815
 2377SOL     OW 7722   4.911   1.615   0.053
 2377SOL    HW1 7723   4.915   1.522   0.076
 2377SOL    HW2 7724   4.885   1.616  -0.039
 2378SOL     OW 7725   4.545   1.000   1.369
 2378SOL    HW1 7726   4.599   1.005   1.290
 2378SOL    HW2 7727   4.549   1.089   1.405
 2379SOL     OW 7728   4.640   0.911   0.290
 2379SOL    HW1 7729   4.702   0.945   0.225
 2379SOL    HW2 7730   4.685   0.836   0.329
 2380SOL     OW 7731   5.228   1.620   0.044
 2380SOL    HW1 7732   5.134   1.632   0.037
 2380SOL    HW2 7733   5.260   1.633  -0.046
 2381SOL     OW 7734   4.084   1.283   1.513
 2381SOL    HW1 7735   4.077   1.363   1.462
 2381SOL    HW2 7736   4.006   1.232   1.489
 2382SOL     OW 7737   4.767   1.100   0.701
 2382SOL    HW1 7738   4.697   1.050   0.742
 2382SOL    HW2 7739   4.824   1.034   0.661
 2383SOL     OW 7740   4.744   0.240   0.965
 2383SOL    HW1 7741   4.732   0.193   0.882
 2383SOL    HW2 7742   4.733   0.174   1.032
 2384SOL     OW 7743   4.321   1.489   0.485
 2384SOL    HW1 7744   4.356   1.436   0.414
 2384SOL    HW2 7745   4.265   1.554   0.442
 2385SOL     OW 7746   5.436   0.394   1.381
 2385SOL    HW1 7747   5.506   0.459   1.383
 2385SOL    HW2 7748   5.471   0.323   1.327
 2386SOL     OW 7749   3.984   1.349   0.288
 2386SOL    HW1 7750   3.892   1.346   0.261
 2386SOL    HW2 7751   3.982   1.389   0.375
 2387SOL     OW 7752   3.834   1.010   1.723
 2387SOL    HW1 7753   3.759   0.987   1.778
 2387SOL    HW2 7754   3.910   0.978   1.771
 2388SOL     OW 7755   4.392   0.202   1.492
 2388SOL    HW1 7756   4.476   0.179   1.452
 2388SOL    HW2 7757   4.413   0.215   1.585
 2389SOL     OW 7758   3.790   0.337   0.033
 2389SOL    HW1 7759   3.697   0.332   0.011
 2389SOL    HW2 7760   3.820   0.418  -0.008
 2390SOL     OW 7761   5.158   0.863   1.401
 2390SOL    HW1 7762   5.107   0.897   1.328
 2390SOL    HW2 7763   5.249   0.867   1.371
 2391SOL     OW 7764   3.790   0.160   0.316
 2391SOL    HW1 7765   3.783   0.242   0.267
 2391SOL    HW2 7766   3.876   0.126   0.294
 2392SOL     OW 7767   4.909   1.350   0.119
 2392SOL    HW1 7768   4.818   1.321   0.116
 2392SOL    HW2 7769   4.934   1.340   0.211
 2393SOL     OW 7770   4.339   0.835   1.429
 2393SOL    HW1 7771   4.395   0.912   1.419
 2393SOL    HW2 7772   4.400   0.762   1.438
 2394SOL     OW 7773   5.219   1.765   0.921
 2394SOL    HW1 7774   5.257   1.838   0.872
 2394SOL    HW2 7775   5.275   1.756   0.998
 2395SOL     OW 7776   4.439   0.565   1.708
 2395SOL    HW1 7777   4.467   0.629   1.775
 2395SOL    HW2 7778   4.490   0.486   1.728
 2396SOL     OW 7779   5.189   1.208   1.635
 2396SOL    HW1 7780   5.177   1.218   1.729
 2396SOL    HW2 7781   5.284   1.218   1.621
 2397SOL     OW 7782   4.105   1.743   1.568
 2397SOL    HW1 7783   4.017   1.779   1.558
 2397SOL    HW2 7784   4.092   1.659   1.611
 2398SOL     OW 7785   5.395   0.885   1.252
 2398SOL    HW1 7786   5.383   0.795   1.223
 2398SOL    HW2 7787   5.394   0.937   1.172
 2399SOL     OW 7788   4.945   0.321   0.454
 2399SOL    HW1 7789   5.010   0.251   0.447
 2399SOL    HW2 7790   4.971   0.369   0.534
 2400SOL     OW 7791   4.317   0.744   0.661
 2400SOL    HW1 7792   4.359   0.828   0.641
 2400SOL    HW2 7793   4.241   0.741   0.602
 2401SOL     OW 7794   5.497   0.349   1.643
 2401SOL    HW1 7795   5.474   0.369   1.553
 2401SOL    HW2 7796   5.422   0.301   1.678
 2402SOL     OW 7797   5.462   0.933   1.515
 2402SOL    HW1 7798   5.480   1.026   1.529
 2402SOL    HW2 7799   5.450   0.926   1.420
 2403SOL     OW 7800   4.632   1.377   0.041
 2403SOL    HW1 7801   4.558   1.378   0.102
 2403SOL    HW2 7802   4.622   1.458  -0.009
 2404SOL     OW 7803   4.385   1.794   0.908
 2404SOL    HW1 7804   4.356   1.885   0.922
 2404SOL    HW2 7805   4.476   1.793   0.938
 2405SOL     OW 7806   4.581   0.962   0.862
 2405SOL    HW1 7807   4.636   0.893   0.901
 2405SOL    HW2 7808   4.568   1.025   0.933
 2406SOL     OW 7809   4.821   1.002   0.100
 2406SOL    HW1 7810   4.771   1.015   0.019
 2406SOL    HW2 7811   4.889   0.939   0.077
 2407SOL     OW 7812   5.582   1.562   0.850
 2407SOL    HW1 7813   5.509   1.553   0.789
 2407SOL    HW2 7814   5.577   1.483   0.905
 2408SOL     OW 7815   3.947   1.308   1.853
 2408SOL    HW1 7816   3.879   1.246   1.828
 2408SOL    HW2 7817   3.935   1.321   1.947
 2409SOL     OW 7818   3.806   1.239   0.660
 2409SOL    HW1 7819   3.807   1.185   0.739
 2409SOL    HW2 7820   3.879   1.206   0.607
 2410SOL     OW 7821   4.394   1.402   1.624
 2410SOL    HW1 7822   4.321   1.355   1.665
 2410SOL    HW2 7823   4.392   1.489   1.665
 2411SOL     OW 7824   5.571   0.216   1.243
 2411SOL    HW1 7825   5.539   0.129   1.267
 2411SOL    HW2 7826   5.564   0.219   1.147
 2412SOL     OW 7827   4.153   0.431   0.522
 2412SOL    HW1 7828   4.181   0.359   0.465
 2412SOL    HW2 7829   4.112   0.387   0.597
 2413SOL     OW 7830   4.046   0.548   1.287
 2413SOL    HW1 7831   4.097   0.494   1.346
 2413SOL    HW2 7832   4.076   0.523   1.199
 2414SOL     OW 7833   4.546   1.580   0.680
 2414SOL    HW1 7834   4.550   1.606   0.588
 2414SOL    HW2 7835   4.464   1.531   0.688
 2415SOL     OW 7836   5.158   0.219   1.117
 2415SOL    HW1 7837   5.198   0.153   1.173
 2415SOL    HW2 7838   5.103   0.270   1.177
 2416SOL     OW 7839   4.712   0.037   1.146
 2416SOL    HW1 7840   4.670  -0.049   1.140
 2416SOL    HW2 7841   4.806   0.017   1.148
 2417SOL     OW 7842   4.492   1.331   0.304
 2417SOL    HW1 7843   4.456   1.243   0.317
 2417SOL    HW2 7844   4.578   1.328   0.346
 2418SOL     OW 7845   5.079   0.049   0.165
 2418SOL    HW1 7846   5.111   0.016   0.081
 2418SOL    HW2 7847   4.991   0.014   0.173
 2419SOL     OW 7848   5.024   0.458   0.687
 2419SOL    HW1 7849   4.967   0.534   0.695
 2419SOL    HW2 7850   5.025   0.418   0.774
 2420SOL     OW 7851   5.320   0.218   0.881
 2420SOL    HW1 7852   5.243   0.223   0.938
 2420SOL    HW2 7853   5.314   0.295   0.825
 2421SOL     OW 7854   3.764   1.075   0.303
 2421SOL    HW1 7855   3.859   1.069   0.296
 2421SOL    HW2 7856   3.736   0.989   0.333
 2422SOL     OW 7857   4.601   1.646   0.347
 2422SOL    HW1 7858   4.531   1.625   0.286
 2422SOL    HW2 7859   4.569   1.722   0.395
 2423SOL     OW 7860   3.955   0.626   1.980
 2423SOL    HW1 7861   3.864   0.625   2.011
 2423SOL    HW2 7862   3.949   0.594   1.890
 2424SOL     OW 7863   3.946   0.277   2.851
 2424SOL    HW1 7864   3.979   0.255   2.938
 2424SOL    HW2 7865   3.859   0.238   2.848
 2425SOL     OW 7866   3.734   0.379   2.503
 2425SOL    HW1 7867   3.651   0.404   2.543
 2425SOL    HW2 7868   3.713   0.302   2.450
 2426SOL     OW 7869   4.291   1.276   3.030
 2426SOL    HW1 7870   4.203   1.277   2.993
 2426SOL    HW2 7871   4.303   1.363   3.067
 2427SOL     OW 7872   5.278   1.511   2.565
 2427SOL    HW1 7873   5.229   1.498   2.646
 2427SOL    HW2 7874   5.210   1.519   2.497
 2428SOL     OW 7875   4.854   0.701   2.572
 2428SOL    HW1 7876   4.907   0.779   2.555
 2428SOL    HW2 7877   4.805   0.721   2.651
 2429SOL     OW 7878   5.484   0.608   2.095
 2429SOL    HW1 7879   5.468   0.597   2.001
 2429SOL    HW2 7880   5.452   0.528   2.135
 2430SOL     OW 7881   4.488   1.146   2.893
 2430SOL    HW1 7882   4.416   1.174   2.948
 2430SOL    HW2 7883   4.519   1.226   2.851
 2431SOL     OW 7884   4.411   1.013   2.517
 2431SOL    HW1 7885   4.473   0.994   2.588
 2431SOL    HW2 7886   4.340   1.061   2.560
 2432SOL     OW 7887   4.056   1.434   2.929
 2432SOL    HW1 7888   3.984   1.400   2.875
 2432SOL    HW2 7889   4.110   1.485   2.868
 2433SOL     OW 7890   5.190   1.499   3.202
 2433SOL    HW1 7891   5.220   1.588   3.220
 2433SOL    HW2 7892   5.152   1.469   3.284
 2434SOL     OW 7893   4.176   0.400   3.353
 2434SOL    HW1 7894   4.246   0.335   3.360
 2434SOL    HW2 7895   4.095   0.350   3.363
 2435SOL     OW 7896   5.336   0.451   2.597
 2435SOL    HW1 7897   5.259   0.485   2.551
 2435SOL    HW2 7898   5.366   0.524   2.651
 2436SOL     OW 7899   3.948   1.710   2.343
 2436SOL    HW1 7900   3.977   1.787   2.393
 2436SOL    HW2 7901   4.011   1.703   2.271
 2437SOL     OW 7902   3.952   1.436   2.396
 2437SOL    HW1 7903   3.934   1.530   2.404
 2437SOL    HW2 7904   3.887   1.394   2.451
 2438SOL     OW 7905   3.971   1.090   2.750
 2438SOL    HW1 7906   3.973   1.007   2.797
 2438SOL    HW2 7907   3.915   1.147   2.802
 2439SOL     OW 7908   4.344   1.787   3.299
 2439SOL    HW1 7909   4.258   1.773   3.339
 2439SOL    HW2 7910   4.365   1.879   3.318
 2440SOL     OW 7911   4.319   0.974   1.990
 2440SOL    HW1 7912   4.351   1.037   1.927
 2440SOL    HW2 7913   4.366   0.995   2.071
 2441SOL     OW 7914   5.323   0.119   3.340
 2441SOL    HW1 7915   5.307   0.189   3.277
 2441SOL    HW2 7916   5.310   0.160   3.426
 2442SOL     OW 7917   3.841   0.647   2.423
 2442SOL    HW1 7918   3.808   0.560   2.443
 2442SOL    HW2 7919   3.833   0.696   2.505
 2443SOL     OW 7920   5.566   1.764   2.206
 2443SOL    HW1 7921   5.618   1.736   2.282
 2443SOL    HW2 7922   5.597   1.853   2.188
 2444SOL     OW 7923   3.749   1.598   1.986
 2444SOL    HW1 7924   3.735   1.505   2.004
 2444SOL    HW2 7925   3.721   1.643   2.066
 2445SOL     OW 7926   5.414   0.919   2.490
 2445SOL    HW1 7927   5.503   0.888   2.480
 2445SOL    HW2 7928   5.398   0.972   2.411
 2446SOL     OW 7929   5.368   1.108   2.293
 2446SOL    HW1 7930   5.451   1.119   2.247
 2446SOL    HW2 7931   5.375   1.166   2.369
 2447SOL     OW 7932   3.842   0.736   3.450
 2447SOL    HW1 7933   3.932   0.747   3.481
 2447SOL    HW2 7934   3.807   0.825   3.444
 2448SOL     OW 7935   4.336   1.374   2.594
 2448SOL    HW1 7936   4.289   1.291   2.601
 2448SOL    HW2 7937   4.317   1.406   2.506
 2449SOL     OW 7938   5.022   1.236   3.297
 2449SOL    HW1 7939   5.051   1.170   3.235
 2449SOL    HW2 7940   5.074   1.219   3.376
 2450SOL     OW 7941   4.535   0.003   2.356
 2450SOL    HW1 7942   4.573   0.091   2.350
 2450SOL    HW2 7943   4.441   0.018   2.362
 2451SOL     OW 7944   3.919   0.974   3.125
 2451SOL    HW1 7945   4.002   0.927   3.112
 2451SOL    HW2 7946   3.852   0.911   3.100
 2452SOL     OW 7947   5.257   0.991   2.054
 2452SOL    HW1 7948   5.187   0.929   2.078
 2452SOL    HW2 7949   5.292   1.020   2.138
 2453SOL     OW 7950   5.188   1.419   2.816
 2453SOL    HW1 7951   5.123   1.429   2.885
 2453SOL    HW2 7952   5.177   1.330   2.785
 2454SOL     OW 7953   5.390   1.723   2.438
 2454SOL    HW1 7954   5.357   1.697   2.351
 2454SOL    HW2 7955   5.364   1.650   2.495
 2455SOL     OW 7956   4.319   0.725   2.126
 2455SOL    HW1 7957   4.335   0.801   2.070
 2455SOL    HW2 7958   4.252   0.755   2.188
 2456SOL     OW 7959   5.007   0.342   2.795
 2456SOL    HW1 7960   4.918   0.307   2.800
 2456SOL    HW2 7961   5.056   0.293   2.861
 2457SOL     OW 7962   5.305   1.664   2.170
 2457SOL    HW1 7963   5.391   1.705   2.167
 2457SOL    HW2 7964   5.283   1.645   2.079
 2458SOL     OW 7965   4.526   0.610   3.318
 2458SOL    HW1 7966   4.491   0.597   3.405
 2458SOL    HW2 7967   4.476   0.551   3.262
 2459SOL     OW 7968   4.693   0.895   3.432
 2459SOL    HW1 7969   4.738   0.818   3.397
 2459SOL    HW2 7970   4.637   0.925   3.360
 2460SOL     OW 7971   4.716   0.412   3.104
 2460SOL    HW1 7972   4.636   0.440   3.148
 2460SOL    HW2 7973   4.686   0.363   3.028
 2461SOL     OW 7974   4.771   0.699   2.290
 2461SOL    HW1 7975   4.785   0.694   2.385
 2461SOL    HW2 7976   4.689   0.653   2.275
 2462SOL     OW 7977   3.810   0.817   2.638
 2462SOL    HW1 7978   3.896   0.808   2.679
 2462SOL    HW2 7979   3.774   0.898   2.674
 2463SOL     OW 7980   3.855   1.828   3.439
 2463SOL    HW1 7981   3.838   1.805   3.530
 2463SOL    HW2 7982   3.768   1.848   3.403
 2464SOL     OW 7983   4.601   0.345   2.059
 2464SOL    HW1 7984   4.650   0.404   2.002
 2464SOL    HW2 7985   4.614   0.258   2.021
 2465SOL     OW 7986   5.094   1.143   2.405
 2465SOL    HW1 7987   5.172   1.125   2.353
 2465SOL    HW2 7988   5.044   1.206   2.353
 2466SOL     OW 7989   4.269   0.196   2.746
 2466SOL    HW1 7990   4.276   0.204   2.841
 2466SOL    HW2 7991   4.278   0.286   2.714
 2467SOL     OW 7992   4.735   1.450   2.338
 2467SOL    HW1 7993   4.690   1.519   2.289
 2467SOL    HW2 7994   4.726   1.475   2.430
 2468SOL     OW 7995   4.076   1.803   2.714
 2468SOL    HW1 7996   4.124   1.720   2.725
 2468SOL    HW2 7997   4.144   1.870   2.723
 2469SOL     OW 7998   5.521   1.063   2.729
 2469SOL    HW1 7999   5.459   1.050   2.658
 2469SOL    HW2 8000   5.466   1.069   2.808
 2470SOL     OW 8001   4.956   1.537   3.352
 2470SOL    HW1 8002   4.953   1.461   3.410
 2470SOL    HW2 8003   4.891   1.519   3.285
 2471SOL     OW 8004   4.045   0.950   2.105
 2471SOL    HW1 8005   4.128   0.974   2.063
 2471SOL    HW2 8006   4.019   0.869   2.062
 2472SOL     OW 8007   5.193   0.733   2.589
 2472SOL    HW1 8008   5.181   0.684   2.670
 2472SOL    HW2 8009   5.266   0.791   2.607
 2473SOL     OW 8010   4.843   1.775   2.097
 2473SOL    HW1 8011   4.774   1.727   2.143
 2473SOL    HW2 8012   4.860   1.723   2.018
 2474SOL     OW 8013   3.932   0.300   3.344
 2474SOL    HW1 8014   3.851   0.349   3.330
 2474SOL    HW2 8015   3.914   0.245   3.420
 2475SOL     OW 8016   5.355   1.377   1.947
 2475SOL    HW1 8017   5.316   1.463   1.933
 2475SOL    HW2 8018   5.284   1.315   1.930
 2476SOL     OW 8019   4.189   1.736   2.190
 2476SOL    HW1 8020   4.226   1.792   2.258
 2476SOL    HW2 8021   4.259   1.728   2.125
 2477SOL     OW 8022   5.122   0.114   2.290
 2477SOL    HW1 8023   5.108   0.084   2.200
 2477SOL    HW2 8024   5.217   0.121   2.298
 2478SOL     OW 8025   3.976   1.790   3.099
 2478SOL    HW1 8026   4.029   1.725   3.146
 2478SOL    HW2 8027   3.963   1.752   3.012
 2479SOL     OW 8028   4.664   1.698   2.765
 2479SOL    HW1 8029   4.739   1.642   2.782
 2479SOL    HW2 8030   4.616   1.653   2.696
 2480SOL     OW 8031   4.110   0.697   2.342
 2480SOL    HW1 8032   4.141   0.606   2.345
 2480SOL    HW2 8033   4.017   0.692   2.365
 2481SOL     OW 8034   4.349   0.145   1.964
 2481SOL    HW1 8035   4.414   0.081   1.994
 2481SOL    HW2 8036   4.309   0.103   1.888
 2482SOL     OW 8037   4.605   1.518   3.056
 2482SOL    HW1 8038   4.589   1.485   2.967
 2482SOL    HW2 8039   4.669   1.458   3.092
 2483SOL     OW 8040   5.067   0.588   3.301
 2483SOL    HW1 8041   5.107   0.560   3.384
 2483SOL    HW2 8042   5.101   0.676   3.287
 2484SOL     OW 8043   4.532   1.403   2.792
 2484SOL    HW1 8044   4.616   1.401   2.746
 2484SOL    HW2 8045   4.466   1.396   2.723
 2485SOL     OW 8046   4.649   0.507   2.765
 2485SOL    HW1 8047   4.625   0.497   2.673
 2485SOL    HW2 8048   4.687   0.423   2.790
 2486SOL     OW 8049   4.271   0.061   2.371
 2486SOL    HW1 8050   4.188   0.059   2.420
 2486SOL    HW2 8051   4.265   0.139   2.316
 2487SOL     OW 8052   5.154   1.195   1.902
 2487SOL    HW1 8053   5.185   1.121   1.955
 2487SOL    HW2 8054   5.067   1.215   1.937
 2488SOL     OW 8055   4.027   0.045   2.048
 2488SOL    HW1 8056   4.085   0.116   2.019
 2488SOL    HW2 8057   4.087  -0.022   2.080
 2489SOL     OW 8058   4.659   0.242   2.334
 2489SOL    HW1 8059   4.624   0.284   2.255
 2489SOL    HW2 8060   4.754   0.251   2.325
 2490SOL     OW 8061   4.803   0.678   3.324
 2490SOL    HW1 8062   4.730   0.616   3.321
 2490SOL    HW2 8063   4.880   0.624   3.308
 2491SOL     OW 8064   4.950   1.569   2.655
 2491SOL    HW1 8065   4.971   1.639   2.593
 2491SOL    HW2 8066   5.017   1.576   2.723
 2492SOL     OW 8067   4.188   1.146   2.603
 2492SOL    HW1 8068   4.114   1.128   2.662
 2492SOL    HW2 8069   4.153   1.127   2.516
 2493SOL     OW 8070   4.997   1.797   2.461
 2493SOL    HW1 8071   5.037   1.859   2.401
 2493SOL    HW2 8072   4.938   1.850   2.515
 2494SOL     OW 8073   4.755   0.549   1.876
 2494SOL    HW1 8074   4.713   0.632   1.852
 2494SOL    HW2 8075   4.814   0.572   1.948
 2495SOL     OW 8076   3.798   0.554   3.253
 2495SOL    HW1 8077   3.888   0.554   3.220
 2495SOL    HW2 8078   3.797   0.626   3.316
 2496SOL     OW 8079   4.289   0.228   3.019
 2496SOL    HW1 8080   4.322   0.144   3.052
 2496SOL    HW2 8081   4.199   0.232   3.050
 2497SOL     OW 8082   4.595   0.459   2.503
 2497SOL    HW1 8083   4.551   0.516   2.440
 2497SOL    HW2 8084   4.611   0.378   2.454
 2498SOL     OW 8085   4.734   0.047   2.625
 2498SOL    HW1 8086   4.674   0.047   2.550
 2498SOL    HW2 8087   4.716  -0.035   2.670
 2499SOL     OW 8088   5.158   1.166   2.723
 2499SOL    HW1 8089   5.095   1.094   2.718
 2499SOL    HW2 8090   5.178   1.187   2.632
 2500SOL     OW 8091   5.195   0.595   2.848
 2500SOL    HW1 8092   5.153   0.510   2.857
 2500SOL    HW2 8093   5.257   0.600   2.920
 2501SOL     OW 8094   5.573   0.825   2.242
 2501SOL    HW1 8095   5.626   0.768   2.298
 2501SOL    HW2 8096   5.545   0.768   2.170
 2502SOL     OW 8097   4.218   1.402   2.031
 2502SOL    HW1 8098   4.139   1.375   2.078
 2502SOL    HW2 8099   4.191   1.401   1.939
 2503SOL     OW 8100   5.390   1.269   2.517
 2503SOL    HW1 8101   5.484   1.280   2.527
 2503SOL    HW2 8102   5.354   1.355   2.539
 2504SOL     OW 8103   5.116   0.571   1.933
 2504SOL    HW1 8104   5.060   0.554   2.010
 2504SOL    HW2 8105   5.202   0.539   1.959
 2505SOL     OW 8106   4.249   0.261   2.187
 2505SOL    HW1 8107   4.286   0.210   2.115
 2505SOL    HW2 8108   4.241   0.350   2.152
 2506SOL     OW 8109   5.486   1.220   3.433
 2506SOL    HW1 8110   5.578   1.195   3.433
 2506SOL    HW2 8111   5.485   1.308   3.469
 2507SOL     OW 8112   4.791   1.352   3.201
 2507SOL    HW1 8113   4.714   1.321   3.248
 2507SOL    HW2 8114   4.865   1.308   3.244
 2508SOL     OW 8115   4.842   1.198   2.969
 2508SOL    HW1 8116   4.788   1.239   3.036
 2508SOL    HW2 8117   4.805   1.230   2.886
 2509SOL     OW 8118   5.360   1.102   2.940
 2509SOL    HW1 8119   5.357   1.167   3.010
 2509SOL    HW2 8120   5.276   1.112   2.895
 2510SOL     OW 8121   4.637   0.099   3.268
 2510SOL    HW1 8122   4.657   0.074   3.178
 2510SOL    HW2 8123   4.718   0.138   3.301
 2511SOL     OW 8124   4.430   1.057   2.234
 2511SOL    HW1 8125   4.418   1.048   2.328
 2511SOL    HW2 8126   4.508   1.004   2.215
 2512SOL     OW 8127   4.138   0.812   3.112
 2512SOL    HW1 8128   4.209   0.823   3.174
 2512SOL    HW2 8129   4.100   0.727   3.134
 2513SOL     OW 8130   4.996   0.381   3.129
 2513SOL    HW1 8131   5.022   0.459   3.179
 2513SOL    HW2 8132   4.909   0.403   3.096
 2514SOL     OW 8133   3.790   1.572   3.197
 2514SOL    HW1 8134   3.755   1.650   3.153
 2514SOL    HW2 8135   3.884   1.586   3.199
 2515SOL     OW 8136   4.084   1.102   2.358
 2515SOL    HW1 8137   4.084   1.178   2.299
 2515SOL    HW2 8138   4.087   1.026   2.300
 2516SOL     OW 8139   4.284   0.538   2.725
 2516SOL    HW1 8140   4.302   0.598   2.653
 2516SOL    HW2 8141   4.339   0.571   2.797
 2517SOL     OW 8142   4.972   1.347   2.252
 2517SOL    HW1 8143   5.024   1.421   2.285
 2517SOL    HW2 8144   4.884   1.363   2.285
 2518SOL     OW 8145   4.995   1.452   3.006
 2518SOL    HW1 8146   5.047   1.456   3.086
 2518SOL    HW2 8147   4.940   1.374   3.016
 2519SOL     OW 8148   5.308   0.632   2.335
 2519SOL    HW1 8149   5.271   0.692   2.400
 2519SOL    HW2 8150   5.353   0.689   2.273
 2520SOL     OW 8151   4.075   1.517   3.186
 2520SOL    HW1 8152   4.059   1.474   3.102
 2520SOL    HW2 8153   4.169   1.533   3.188
 2521SOL     OW 8154   4.126   0.748   3.463
 2521SOL    HW1 8155   4.190   0.800   3.414
 2521SOL    HW2 8156   4.172   0.667   3.483
 2522SOL     OW 8157   5.315   0.767   3.526
 2522SOL    HW1 8158   5.237   0.821   3.538
 2522SOL    HW2 8159   5.376   0.822   3.476
 2523SOL     OW 8160   4.304   0.870   2.893
 2523SOL    HW1 8161   4.335   0.960   2.886
 2523SOL    HW2 8162   4.244   0.871   2.968
 2524SOL     OW 8163   5.087   0.861   2.901
 2524SOL    HW1 8164   5.009   0.857   2.845
 2524SOL    HW2 8165   5.118   0.771   2.906
 2525SOL     OW 8166   4.936   0.529   2.135
 2525SOL    HW1 8167   4.941   0.450   2.189
 2525SOL    HW2 8168   4.896   0.594   2.192
 2526SOL     OW 8169   4.032   0.209   3.101
 2526SOL    HW1 8170   4.000   0.246   3.183
 2526SOL    HW2 8171   4.001   0.119   3.102
 2527SOL     OW 8172   3.771   1.308   3.139
 2527SOL    HW1 8173   3.805   1.261   3.215
 2527SOL    HW2 8174   3.778   1.401   3.163
 2528SOL     OW 8175   4.454   0.634   2.926
 2528SOL    HW1 8176   4.519   0.613   2.858
 2528SOL    HW2 8177   4.426   0.723   2.904
 2529SOL     OW 8178   4.022   0.062   2.486
 2529SOL    HW1 8179   4.016   0.152   2.516
 2529SOL    HW2 8180   4.029   0.010   2.566
 2530SOL     OW 8181   5.333   0.368   2.232
 2530SOL    HW1 8182   5.359   0.305   2.300
 2530SOL    HW2 8183   5.308   0.447   2.281
 2531SOL     OW 8184   4.749   0.762   2.827
 2531SOL    HW1 8185   4.756   0.780   2.921
 2531SOL    HW2 8186   4.721   0.671   2.821
 2532SOL     OW 8187   5.588   1.488   3.445
 2532SOL    HW1 8188   5.601   1.534   3.362
 2532SOL    HW2 8189   5.634   1.542   3.509
 2533SOL     OW 8190   5.259   0.273   1.988
 2533SOL    HW1 8191   5.195   0.208   2.018
 2533SOL    HW2 8192   5.289   0.315   2.069
 2534SOL     OW 8193   5.023   0.830   1.900
 2534SOL    HW1 8194   5.063   0.743   1.904
 2534SOL    HW2 8195   5.050   0.865   1.815
 2535SOL     OW 8196   4.790   1.334   2.713
 2535SOL    HW1 8197   4.794   1.259   2.653
 2535SOL    HW2 8198   4.853   1.396   2.677
 2536SOL     OW 8199   4.038   0.812   2.812
 2536SOL    HW1 8200   4.131   0.835   2.809
 2536SOL    HW2 8201   4.036   0.726   2.853
 2537SOL     OW 8202   4.060   0.516   2.870
 2537SOL    HW1 8203   4.021   0.430   2.852
 2537SOL    HW2 8204   4.135   0.521   2.811
 2538SOL     OW 8205   4.874   0.213   3.340
 2538SOL    HW1 8206   4.891   0.276   3.410
 2538SOL    HW2 8207   4.913   0.254   3.262
 2539SOL     OW 8208   3.729   1.325   2.058
 2539SOL    HW1 8209   3.641   1.338   2.023
 2539SOL    HW2 8210   3.731   1.233   2.085
 2540SOL     OW 8211   3.814   1.794   2.795
 2540SOL    HW1 8212   3.780   1.713   2.756
 2540SOL    HW2 8213   3.903   1.802   2.762
 2541SOL     OW 8214   4.226   1.572   2.767
 2541SOL    HW1 8215   4.295   1.635   2.788
 2541SOL    HW2 8216   4.272   1.500   2.722
 2542SOL     OW 8217   4.720   0.796   3.093
 2542SOL    HW1 8218   4.764   0.768   3.173
 2542SOL    HW2 8219   4.630   0.765   3.103
 2543SOL     OW 8220   3.761   0.538   2.978
 2543SOL    HW1 8221   3.846   0.521   2.935
 2543SOL    HW2 8222   3.784   0.553   3.070
 2544SOL     OW 8223   4.538   0.569   2.206
 2544SOL    HW1 8224   4.541   0.492   2.149
 2544SOL    HW2 8225   4.458   0.615   2.180
 2545SOL     OW 8226   5.368   0.599   3.055
 2545SOL    HW1 8227   5.354   0.540   3.129
 2545SOL    HW2 8228   5.456   0.576   3.024
 2546SOL     OW 8229   4.007   1.555   0.059
 2546SOL    HW1 8230   3.949   1.614   0.107
 2546SOL    HW2 8231   3.972   1.468   0.076
 2547SOL     OW 8232   4.410   0.459   3.129
 2547SOL    HW1 8233   4.364   0.381   3.096
 2547SOL    HW2 8234   4.415   0.517   3.053
 2548SOL     OW 8235   4.664   1.675   3.330
 2548SOL    HW1 8236   4.631   1.651   3.243
 2548SOL    HW2 8237   4.670   1.770   3.328
 2549SOL     OW 8238   4.195   0.496   2.052
 2549SOL    HW1 8239   4.251   0.572   2.066
 2549SOL    HW2 8240   4.106   0.531   2.050
 2550SOL     OW 8241   3.881   1.139   3.330
 2550SOL    HW1 8242   3.891   1.079   3.404
 2550SOL    HW2 8243   3.893   1.083   3.253
 2551SOL     OW 8244   5.060   1.054   3.093
 2551SOL    HW1 8245   5.086   0.994   3.023
 2551SOL    HW2 8246   4.982   1.097   3.059
 2552SOL     OW 8247   5.030   0.852   2.171
 2552SOL    HW1 8248   4.947   0.827   2.214
 2552SOL    HW2 8249   5.012   0.844   2.078
 2553SOL     OW 8250   5.485   1.750   3.012
 2553SOL    HW1 8251   5.546   1.774   2.942
 2553SOL    HW2 8252   5.461   1.659   2.993
 2554SOL     OW 8253   4.969   1.732   2.985
 2554SOL    HW1 8254   5.051   1.743   2.936
 2554SOL    HW2 8255   4.964   1.638   3.002
 2555SOL     OW 8256   3.808   1.262   2.879
 2555SOL    HW1 8257   3.797   1.269   2.974
 2555SOL    HW2 8258   3.730   1.215   2.849
 2556SOL     OW 8259   5.441   0.136   2.371
 2556SOL    HW1 8260   5.523   0.124   2.322
 2556SOL    HW2 8261   5.432   0.056   2.422
 2557SOL     OW 8262   5.114   1.569   2.342
 2557SOL    HW1 8263   5.174   1.595   2.272
 2557SOL    HW2 8264   5.070   1.650   2.367
 2558SOL     OW 8265   5.001   0.922   2.533
 2558SOL    HW1 8266   5.073   0.858   2.534
 2558SOL    HW2 8267   5.036   0.995   2.481
 2559SOL     OW 8268   4.550   1.270   3.290
 2559SOL    HW1 8269   4.536   1.303   3.379
 2559SOL    HW2 8270   4.470   1.294   3.243
 2560SOL     OW 8271   4.397   1.613   2.017
 2560SOL    HW1 8272   4.404   1.623   1.922
 2560SOL    HW2 8273   4.350   1.531   2.029
 2561SOL     OW 8274   5.365   1.722   3.262
 2561SOL    HW1 8275   5.410   1.731   3.178
 2561SOL    HW2 8276   5.348   1.812   3.290
 2562SOL     OW 8277   5.566   0.155   2.828
 2562SOL    HW1 8278   5.594   0.088   2.766
 2562SOL    HW2 8279   5.480   0.183   2.797
 2563SOL     OW 8280   3.992   0.320   2.582
 2563SOL    HW1 8281   3.910   0.361   2.554
 2563SOL    HW2 8282   3.983   0.310   2.676
 2564SOL     OW 8283   4.926   1.610   1.891
 2564SOL    HW1 8284   4.923   1.519   1.922
 2564SOL    HW2 8285   4.859   1.613   1.822
 2565SOL     OW 8286   4.547   1.005   3.231
 2565SOL    HW1 8287   4.588   1.006   3.145
 2565SOL    HW2 8288   4.552   1.096   3.261
 2566SOL     OW 8289   4.640   0.910   2.152
 2566SOL    HW1 8290   4.702   0.942   2.086
 2566SOL    HW2 8291   4.684   0.835   2.192
 2567SOL     OW 8292   5.227   1.621   1.905
 2567SOL    HW1 8293   5.132   1.628   1.902
 2567SOL    HW2 8294   5.255   1.628   1.813
 2568SOL     OW 8295   4.097   1.299   3.367
 2568SOL    HW1 8296   4.084   1.376   3.312
 2568SOL    HW2 8297   4.022   1.242   3.346
 2569SOL     OW 8298   5.337   1.284   3.146
 2569SOL    HW1 8299   5.395   1.283   3.223
 2569SOL    HW2 8300   5.277   1.357   3.164
 2570SOL     OW 8301   4.767   1.101   2.564
 2570SOL    HW1 8302   4.698   1.050   2.607
 2570SOL    HW2 8303   4.824   1.036   2.524
 2571SOL     OW 8304   4.745   0.240   2.827
 2571SOL    HW1 8305   4.732   0.194   2.744
 2571SOL    HW2 8306   4.732   0.173   2.894
 2572SOL     OW 8307   4.321   1.490   2.348
 2572SOL    HW1 8308   4.356   1.436   2.277
 2572SOL    HW2 8309   4.266   1.554   2.304
 2573SOL     OW 8310   5.433   0.390   3.244
 2573SOL    HW1 8311   5.502   0.456   3.252
 2573SOL    HW2 8312   5.472   0.322   3.189
 2574SOL     OW 8313   3.980   1.351   2.147
 2574SOL    HW1 8314   3.886   1.348   2.128
 2574SOL    HW2 8315   3.986   1.388   2.235
 2575SOL     OW 8316   3.838   0.998   0.026
 2575SOL    HW1 8317   3.759   0.993   0.080
 2575SOL    HW2 8318   3.911   0.991   0.088
 2576SOL     OW 8319   4.394   0.203   3.355
 2576SOL    HW1 8320   4.477   0.179   3.315
 2576SOL    HW2 8321   4.415   0.217   3.447
 2577SOL     OW 8322   3.798   0.349   1.902
 2577SOL    HW1 8323   3.716   0.317   1.864
 2577SOL    HW2 8324   3.826   0.419   1.843
 2578SOL     OW 8325   5.157   0.850   3.262
 2578SOL    HW1 8326   5.110   0.913   3.207
 2578SOL    HW2 8327   5.249   0.863   3.240
 2579SOL     OW 8328   3.789   0.159   2.176
 2579SOL    HW1 8329   3.782   0.241   2.128
 2579SOL    HW2 8330   3.878   0.128   2.158
 2580SOL     OW 8331   4.907   1.343   1.980
 2580SOL    HW1 8332   4.815   1.318   1.983
 2580SOL    HW2 8333   4.935   1.342   2.072
 2581SOL     OW 8334   4.339   0.836   3.292
 2581SOL    HW1 8335   4.395   0.913   3.278
 2581SOL    HW2 8336   4.400   0.763   3.300
 2582SOL     OW 8337   5.213   1.770   2.829
 2582SOL    HW1 8338   5.245   1.828   2.759
 2582SOL    HW2 8339   5.287   1.761   2.888
 2583SOL     OW 8340   4.446   0.570   0.018
 2583SOL    HW1 8341   4.456   0.627   0.094
 2583SOL    HW2 8342   4.491   0.490   0.043
 2584SOL     OW 8343   4.113   1.739   3.421
 2584SOL    HW1 8344   4.027   1.782   3.418
 2584SOL    HW2 8345   4.096   1.655   3.464
 2585SOL     OW 8346   5.399   0.883   3.117
 2585SOL    HW1 8347   5.381   0.799   3.076
 2585SOL    HW2 8348   5.393   0.947   3.046
 2586SOL     OW 8349   4.946   0.322   2.316
 2586SOL    HW1 8350   5.010   0.251   2.309
 2586SOL    HW2 8351   4.970   0.369   2.395
 2587SOL     OW 8352   4.318   0.744   2.522
 2587SOL    HW1 8353   4.359   0.828   2.504
 2587SOL    HW2 8354   4.241   0.741   2.464
 2588SOL     OW 8355   5.468   0.933   3.376
 2588SOL    HW1 8356   5.474   1.028   3.390
 2588SOL    HW2 8357   5.450   0.924   3.282
 2589SOL     OW 8358   4.585   1.371   1.885
 2589SOL    HW1 8359   4.543   1.395   1.968
 2589SOL    HW2 8360   4.613   1.454   1.848
 2590SOL     OW 8361   4.382   1.795   2.816
 2590SOL    HW1 8362   4.354   1.883   2.791
 2590SOL    HW2 8363   4.477   1.796   2.804
 2591SOL     OW 8364   4.587   0.960   2.720
 2591SOL    HW1 8365   4.638   0.893   2.765
 2591SOL    HW2 8366   4.557   1.019   2.790
 2592SOL     OW 8367   4.805   0.985   1.951
 2592SOL    HW1 8368   4.783   1.036   1.873
 2592SOL    HW2 8369   4.882   0.935   1.926
 2593SOL     OW 8370   5.585   1.561   2.709
 2593SOL    HW1 8371   5.510   1.550   2.650
 2593SOL    HW2 8372   5.576   1.491   2.773
 2594SOL     OW 8373   3.806   1.239   2.521
 2594SOL    HW1 8374   3.806   1.189   2.602
 2594SOL    HW2 8375   3.879   1.203   2.471
 2595SOL     OW 8376   4.376   1.393   3.467
 2595SOL    HW1 8377   4.313   1.341   3.516
 2595SOL    HW2 8378   4.378   1.478   3.512
 2596SOL     OW 8379   5.572   0.215   3.106
 2596SOL    HW1 8380   5.538   0.128   3.127
 2596SOL    HW2 8381   5.565   0.221   3.010
 2597SOL     OW 8382   4.152   0.430   2.383
 2597SOL    HW1 8383   4.181   0.357   2.328
 2597SOL    HW2 8384   4.112   0.388   2.459
 2598SOL     OW 8385   5.427   1.493   2.967
 2598SOL    HW1 8386   5.344   1.462   2.931
 2598SOL    HW2 8387   5.448   1.430   3.036
 2599SOL     OW 8388   4.045   0.548   3.148
 2599SOL    HW1 8389   4.098   0.494   3.208
 2599SOL    HW2 8390   4.076   0.523   3.061
 2600SOL     OW 8391   4.545   1.578   2.546
 2600SOL    HW1 8392   4.553   1.608   2.456
 2600SOL    HW2 8393   4.463   1.528   2.547
 2601SOL     OW 8394   5.157   0.219   2.979
 2601SOL    HW1 8395   5.199   0.153   3.035
 2601SOL    HW2 8396   5.103   0.271   3.039
 2602SOL     OW 8397   4.713   0.037   3.009
 2602SOL    HW1 8398   4.670  -0.048   3.002
 2602SOL    HW2 8399   4.806   0.017   3.011
 2603SOL     OW 8400   4.494   1.332   2.168
 2603SOL    HW1 8401   4.456   1.244   2.177
 2603SOL    HW2 8402   4.579   1.326   2.211
 2604SOL     OW 8403   4.343   1.564   3.145
 2604SOL    HW1 8404   4.346   1.643   3.198
 2604SOL    HW2 8405   4.430   1.558   3.105
 2605SOL     OW 8406   5.081   0.049   2.027
 2605SOL    HW1 8407   5.102   0.012   1.941
 2605SOL    HW2 8408   4.990   0.024   2.043
 2606SOL     OW 8409   5.024   0.457   2.549
 2606SOL    HW1 8410   4.967   0.534   2.557
 2606SOL    HW2 8411   5.025   0.419   2.637
 2607SOL     OW 8412   5.320   0.218   2.743
 2607SOL    HW1 8413   5.243   0.224   2.800
 2607SOL    HW2 8414   5.314   0.296   2.687
 2608SOL     OW 8415   3.766   1.076   2.164
 2608SOL    HW1 8416   3.860   1.065   2.151
 2608SOL    HW2 8417   3.734   0.990   2.189
 2609SOL     OW 8418   4.600   1.644   2.209
 2609SOL    HW1 8419   4.530   1.625   2.146
 2609SOL    HW2 8420   4.570   1.723   2.255
 2610SOL     OW 8421   3.956   2.478   0.130
 2610SOL    HW1 8422   3.863   2.486   0.153
 2610SOL    HW2 8423   3.956   2.458   0.037
 2611SOL     OW 8424   3.733   2.245   0.634
 2611SOL    HW1 8425   3.654   2.261   0.686
 2611SOL    HW2 8426   3.716   2.161   0.591
 2612SOL     OW 8427   5.280   3.375   0.698
 2612SOL    HW1 8428   5.233   3.357   0.780
 2612SOL    HW2 8429   5.211   3.382   0.632
 2613SOL     OW 8430   4.856   2.560   0.709
 2613SOL    HW1 8431   4.907   2.640   0.697
 2613SOL    HW2 8432   4.802   2.577   0.786
 2614SOL     OW 8433   5.491   2.467   0.228
 2614SOL    HW1 8434   5.455   2.464   0.139
 2614SOL    HW2 8435   5.451   2.392   0.273
 2615SOL     OW 8436   4.584   2.652   1.821
 2615SOL    HW1 8437   4.566   2.725   1.881
 2615SOL    HW2 8438   4.598   2.693   1.736
 2616SOL     OW 8439   4.411   2.873   0.655
 2616SOL    HW1 8440   4.474   2.858   0.726
 2616SOL    HW2 8441   4.341   2.924   0.696
 2617SOL     OW 8442   4.419   3.020   1.811
 2617SOL    HW1 8443   4.472   3.099   1.821
 2617SOL    HW2 8444   4.339   3.050   1.768
 2618SOL     OW 8445   4.178   2.256   1.545
 2618SOL    HW1 8446   4.247   2.198   1.514
 2618SOL    HW2 8447   4.097   2.216   1.513
 2619SOL     OW 8448   5.340   2.310   0.727
 2619SOL    HW1 8449   5.260   2.341   0.685
 2619SOL    HW2 8450   5.362   2.377   0.792
 2620SOL     OW 8451   3.947   3.574   0.477
 2620SOL    HW1 8452   3.976   3.648   0.530
 2620SOL    HW2 8453   4.008   3.572   0.403
 2621SOL     OW 8454   4.857   3.199   1.690
 2621SOL    HW1 8455   4.896   3.196   1.777
 2621SOL    HW2 8456   4.802   3.121   1.686
 2622SOL     OW 8457   3.951   3.299   0.534
 2622SOL    HW1 8458   3.935   3.393   0.543
 2622SOL    HW2 8459   3.886   3.258   0.590
 2623SOL     OW 8460   3.965   2.956   0.886
 2623SOL    HW1 8461   3.973   2.870   0.927
 2623SOL    HW2 8462   3.910   3.006   0.946
 2624SOL     OW 8463   4.360   3.647   1.485
 2624SOL    HW1 8464   4.266   3.629   1.486
 2624SOL    HW2 8465   4.366   3.739   1.461
 2625SOL     OW 8466   4.320   2.832   0.135
 2625SOL    HW1 8467   4.340   2.897   0.068
 2625SOL    HW2 8468   4.373   2.858   0.211
 2626SOL     OW 8469   5.362   2.013   1.505
 2626SOL    HW1 8470   5.306   2.030   1.430
 2626SOL    HW2 8471   5.311   2.041   1.581
 2627SOL     OW 8472   3.841   2.509   0.561
 2627SOL    HW1 8473   3.808   2.421   0.579
 2627SOL    HW2 8474   3.833   2.555   0.645
 2628SOL     OW 8475   5.563   3.630   0.351
 2628SOL    HW1 8476   5.619   3.601   0.423
 2628SOL    HW2 8477   5.597   3.717   0.328
 2629SOL     OW 8478   3.751   3.472   0.140
 2629SOL    HW1 8479   3.725   3.381   0.153
 2629SOL    HW2 8480   3.719   3.517   0.218
 2630SOL     OW 8481   5.417   2.784   0.631
 2630SOL    HW1 8482   5.504   2.747   0.615
 2630SOL    HW2 8483   5.397   2.834   0.552
 2631SOL     OW 8484   5.369   2.968   0.434
 2631SOL    HW1 8485   5.449   2.983   0.383
 2631SOL    HW2 8486   5.376   3.028   0.508
 2632SOL     OW 8487   3.840   2.606   1.605
 2632SOL    HW1 8488   3.934   2.607   1.623
 2632SOL    HW2 8489   3.820   2.695   1.576
 2633SOL     OW 8490   4.338   3.232   0.728
 2633SOL    HW1 8491   4.286   3.152   0.736
 2633SOL    HW2 8492   4.315   3.267   0.642
 2634SOL     OW 8493   4.532   1.861   0.497
 2634SOL    HW1 8494   4.572   1.948   0.494
 2634SOL    HW2 8495   4.439   1.878   0.514
 2635SOL     OW 8496   5.250   2.859   0.195
 2635SOL    HW1 8497   5.187   2.791   0.218
 2635SOL    HW2 8498   5.291   2.883   0.278
 2636SOL     OW 8499   4.903   3.662   1.620
 2636SOL    HW1 8500   4.934   3.716   1.547
 2636SOL    HW2 8501   4.920   3.572   1.592
 2637SOL     OW 8502   4.058   2.108   1.800
 2637SOL    HW1 8503   4.104   2.192   1.794
 2637SOL    HW2 8504   3.967   2.131   1.819
 2638SOL     OW 8505   5.177   3.284   0.923
 2638SOL    HW1 8506   5.147   3.293   1.013
 2638SOL    HW2 8507   5.174   3.190   0.906
 2639SOL     OW 8508   5.389   3.585   0.577
 2639SOL    HW1 8509   5.358   3.561   0.490
 2639SOL    HW2 8510   5.362   3.513   0.633
 2640SOL     OW 8511   4.321   2.588   0.262
 2640SOL    HW1 8512   4.333   2.666   0.207
 2640SOL    HW2 8513   4.254   2.614   0.325
 2641SOL     OW 8514   5.015   2.190   0.919
 2641SOL    HW1 8515   4.922   2.167   0.918
 2641SOL    HW2 8516   5.048   2.154   1.001
 2642SOL     OW 8517   5.304   3.528   0.309
 2642SOL    HW1 8518   5.390   3.568   0.305
 2642SOL    HW2 8519   5.284   3.505   0.218
 2643SOL     OW 8520   4.538   2.435   1.488
 2643SOL    HW1 8521   4.482   2.448   1.565
 2643SOL    HW2 8522   4.478   2.407   1.419
 2644SOL     OW 8523   5.124   2.330   1.683
 2644SOL    HW1 8524   5.113   2.373   1.768
 2644SOL    HW2 8525   5.190   2.263   1.698
 2645SOL     OW 8526   4.691   2.759   1.573
 2645SOL    HW1 8527   4.735   2.679   1.546
 2645SOL    HW2 8528   4.639   2.786   1.497
 2646SOL     OW 8529   4.771   2.562   0.428
 2646SOL    HW1 8530   4.786   2.554   0.523
 2646SOL    HW2 8531   4.689   2.515   0.413
 2647SOL     OW 8532   3.807   2.678   0.778
 2647SOL    HW1 8533   3.895   2.669   0.814
 2647SOL    HW2 8534   3.775   2.761   0.812
 2648SOL     OW 8535   3.856   3.698   1.577
 2648SOL    HW1 8536   3.841   3.672   1.668
 2648SOL    HW2 8537   3.769   3.707   1.539
 2649SOL     OW 8538   4.592   2.216   0.189
 2649SOL    HW1 8539   4.661   2.263   0.142
 2649SOL    HW2 8540   4.606   2.124   0.167
 2650SOL     OW 8541   5.439   2.444   1.830
 2650SOL    HW1 8542   5.408   2.525   1.788
 2650SOL    HW2 8543   5.450   2.382   1.758
 2651SOL     OW 8544   5.094   3.006   0.544
 2651SOL    HW1 8545   5.171   2.985   0.490
 2651SOL    HW2 8546   5.044   3.068   0.491
 2652SOL     OW 8547   4.267   2.055   0.890
 2652SOL    HW1 8548   4.271   2.069   0.985
 2652SOL    HW2 8549   4.281   2.142   0.852
 2653SOL     OW 8550   4.735   3.312   0.476
 2653SOL    HW1 8551   4.690   3.382   0.428
 2653SOL    HW2 8552   4.724   3.336   0.569
 2654SOL     OW 8553   4.078   3.664   0.850
 2654SOL    HW1 8554   4.121   3.579   0.864
 2654SOL    HW2 8555   4.149   3.728   0.860
 2655SOL     OW 8556   5.513   2.931   0.877
 2655SOL    HW1 8557   5.462   2.915   0.797
 2655SOL    HW2 8558   5.448   2.927   0.948
 2656SOL     OW 8559   4.939   3.406   1.523
 2656SOL    HW1 8560   4.946   3.326   1.575
 2656SOL    HW2 8561   4.907   3.376   1.438
 2657SOL     OW 8562   4.039   2.813   0.226
 2657SOL    HW1 8563   4.128   2.834   0.196
 2657SOL    HW2 8564   4.029   2.720   0.205
 2658SOL     OW 8565   5.189   2.604   0.723
 2658SOL    HW1 8566   5.185   2.542   0.796
 2658SOL    HW2 8567   5.269   2.654   0.739
 2659SOL     OW 8568   4.178   3.139   1.745
 2659SOL    HW1 8569   4.149   3.135   1.653
 2659SOL    HW2 8570   4.112   3.090   1.793
 2660SOL     OW 8571   4.828   3.646   0.234
 2660SOL    HW1 8572   4.775   3.590   0.290
 2660SOL    HW2 8573   4.860   3.587   0.166
 2661SOL     OW 8574   3.917   2.160   1.532
 2661SOL    HW1 8575   3.830   2.192   1.510
 2661SOL    HW2 8576   3.902   2.100   1.605
 2662SOL     OW 8577   5.352   3.241   0.096
 2662SOL    HW1 8578   5.313   3.325   0.073
 2662SOL    HW2 8579   5.288   3.176   0.067
 2663SOL     OW 8580   4.191   3.601   0.324
 2663SOL    HW1 8581   4.224   3.653   0.396
 2663SOL    HW2 8582   4.266   3.590   0.265
 2664SOL     OW 8583   5.125   1.972   0.427
 2664SOL    HW1 8584   5.110   1.942   0.338
 2664SOL    HW2 8585   5.220   1.979   0.435
 2665SOL     OW 8586   4.667   3.562   0.895
 2665SOL    HW1 8587   4.734   3.498   0.922
 2665SOL    HW2 8588   4.613   3.514   0.832
 2666SOL     OW 8589   4.110   2.559   0.480
 2666SOL    HW1 8590   4.141   2.469   0.482
 2666SOL    HW2 8591   4.017   2.553   0.503
 2667SOL     OW 8592   5.257   2.093   1.731
 2667SOL    HW1 8593   5.267   2.115   1.824
 2667SOL    HW2 8594   5.197   2.019   1.730
 2668SOL     OW 8595   4.339   1.981   0.114
 2668SOL    HW1 8596   4.432   1.959   0.121
 2668SOL    HW2 8597   4.314   1.952   0.026
 2669SOL     OW 8598   4.497   2.127   1.746
 2669SOL    HW1 8599   4.566   2.069   1.778
 2669SOL    HW2 8600   4.439   2.140   1.821
 2670SOL     OW 8601   5.048   2.459   1.470
 2670SOL    HW1 8602   5.092   2.413   1.542
 2670SOL    HW2 8603   5.095   2.542   1.463
 2671SOL     OW 8604   4.526   3.270   0.915
 2671SOL    HW1 8605   4.613   3.260   0.878
 2671SOL    HW2 8606   4.466   3.255   0.842
 2672SOL     OW 8607   4.650   2.368   0.898
 2672SOL    HW1 8608   4.625   2.356   0.806
 2672SOL    HW2 8609   4.687   2.283   0.923
 2673SOL     OW 8610   4.271   1.924   0.510
 2673SOL    HW1 8611   4.190   1.926   0.561
 2673SOL    HW2 8612   4.266   2.003   0.455
 2674SOL     OW 8613   5.150   3.059   0.033
 2674SOL    HW1 8614   5.187   2.986   0.084
 2674SOL    HW2 8615   5.065   3.075   0.075
 2675SOL     OW 8616   4.017   1.905   0.181
 2675SOL    HW1 8617   4.075   1.975   0.151
 2675SOL    HW2 8618   4.075   1.838   0.216
 2676SOL     OW 8619   4.658   2.102   0.472
 2676SOL    HW1 8620   4.623   2.143   0.393
 2676SOL    HW2 8621   4.753   2.109   0.463
 2677SOL     OW 8622   4.796   2.541   1.482
 2677SOL    HW1 8623   4.722   2.481   1.470
 2677SOL    HW2 8624   4.873   2.490   1.460
 2678SOL     OW 8625   4.950   3.433   0.794
 2678SOL    HW1 8626   4.970   3.501   0.730
 2678SOL    HW2 8627   5.021   3.437   0.857
 2679SOL     OW 8628   4.188   3.004   0.742
 2679SOL    HW1 8629   4.113   2.993   0.800
 2679SOL    HW2 8630   4.153   2.989   0.654
 2680SOL     OW 8631   4.997   3.659   0.598
 2680SOL    HW1 8632   5.037   3.723   0.539
 2680SOL    HW2 8633   4.937   3.710   0.652
 2681SOL     OW 8634   4.744   2.406   0.034
 2681SOL    HW1 8635   4.726   2.485  -0.017
 2681SOL    HW2 8636   4.820   2.429   0.088
 2682SOL     OW 8637   4.593   2.320   0.639
 2682SOL    HW1 8638   4.551   2.377   0.575
 2682SOL    HW2 8639   4.612   2.239   0.591
 2683SOL     OW 8640   4.737   1.909   0.750
 2683SOL    HW1 8641   4.674   1.901   0.679
 2683SOL    HW2 8642   4.720   1.834   0.807
 2684SOL     OW 8643   5.159   3.025   0.858
 2684SOL    HW1 8644   5.094   2.955   0.852
 2684SOL    HW2 8645   5.176   3.049   0.766
 2685SOL     OW 8646   5.215   2.443   0.932
 2685SOL    HW1 8647   5.154   2.374   0.958
 2685SOL    HW2 8648   5.250   2.476   1.015
 2686SOL     OW 8649   5.576   2.685   0.379
 2686SOL    HW1 8650   5.626   2.627   0.436
 2686SOL    HW2 8651   5.544   2.628   0.309
 2687SOL     OW 8652   4.218   3.255   0.160
 2687SOL    HW1 8653   4.147   3.232   0.220
 2687SOL    HW2 8654   4.173   3.279   0.078
 2688SOL     OW 8655   5.390   3.131   0.659
 2688SOL    HW1 8656   5.485   3.144   0.663
 2688SOL    HW2 8657   5.353   3.217   0.676
 2689SOL     OW 8658   5.108   2.435   0.072
 2689SOL    HW1 8659   5.058   2.414   0.150
 2689SOL    HW2 8660   5.195   2.398   0.087
 2690SOL     OW 8661   4.252   2.123   0.327
 2690SOL    HW1 8662   4.283   2.068   0.255
 2690SOL    HW2 8663   4.240   2.210   0.288
 2691SOL     OW 8664   5.480   3.085   1.584
 2691SOL    HW1 8665   5.571   3.055   1.580
 2691SOL    HW2 8666   5.486   3.177   1.608
 2692SOL     OW 8667   5.325   3.495   1.646
 2692SOL    HW1 8668   5.327   3.517   1.553
 2692SOL    HW2 8669   5.405   3.445   1.661
 2693SOL     OW 8670   4.707   2.973   1.724
 2693SOL    HW1 8671   4.613   2.991   1.730
 2693SOL    HW2 8672   4.715   2.900   1.663
 2694SOL     OW 8673   4.431   2.920   0.372
 2694SOL    HW1 8674   4.420   2.911   0.467
 2694SOL    HW2 8675   4.509   2.867   0.353
 2695SOL     OW 8676   4.083   2.965   0.496
 2695SOL    HW1 8677   4.084   3.040   0.437
 2695SOL    HW2 8678   4.089   2.889   0.438
 2696SOL     OW 8679   4.295   2.401   0.869
 2696SOL    HW1 8680   4.306   2.455   0.791
 2696SOL    HW2 8681   4.360   2.434   0.931
 2697SOL     OW 8682   4.972   3.208   0.392
 2697SOL    HW1 8683   5.024   3.283   0.423
 2697SOL    HW2 8684   4.884   3.225   0.423
 2698SOL     OW 8685   5.309   2.495   0.473
 2698SOL    HW1 8686   5.269   2.554   0.537
 2698SOL    HW2 8687   5.350   2.553   0.410
 2699SOL     OW 8688   4.123   2.607   1.604
 2699SOL    HW1 8689   4.186   2.663   1.560
 2699SOL    HW2 8690   4.171   2.527   1.625
 2700SOL     OW 8691   5.311   2.632   1.665
 2700SOL    HW1 8692   5.230   2.683   1.670
 2700SOL    HW2 8693   5.369   2.684   1.609
 2701SOL     OW 8694   4.725   1.972   1.763
 2701SOL    HW1 8695   4.762   2.050   1.721
 2701SOL    HW2 8696   4.774   1.899   1.725
 2702SOL     OW 8697   4.226   1.908   1.747
 2702SOL    HW1 8698   4.187   1.857   1.676
 2702SOL    HW2 8699   4.164   1.979   1.762
 2703SOL     OW 8700   4.934   2.389   0.274
 2703SOL    HW1 8701   4.941   2.311   0.328
 2703SOL    HW2 8702   4.897   2.456   0.332
 2704SOL     OW 8703   5.457   2.814   1.851
 2704SOL    HW1 8704   5.404   2.781   1.778
 2704SOL    HW2 8705   5.394   2.831   1.921
 2705SOL     OW 8706   4.027   1.928   0.621
 2705SOL    HW1 8707   4.010   2.018   0.652
 2705SOL    HW2 8708   4.026   1.875   0.701
 2706SOL     OW 8709   5.335   2.231   0.370
 2706SOL    HW1 8710   5.360   2.166   0.436
 2706SOL    HW2 8711   5.308   2.308   0.421
 2707SOL     OW 8712   4.707   3.427   1.713
 2707SOL    HW1 8713   4.686   3.472   1.631
 2707SOL    HW2 8714   4.748   3.345   1.685
 2708SOL     OW 8715   5.583   3.375   1.606
 2708SOL    HW1 8716   5.597   3.402   1.515
 2708SOL    HW2 8717   5.663   3.401   1.652
 2709SOL     OW 8718   5.264   2.136   0.123
 2709SOL    HW1 8719   5.201   2.068   0.146
 2709SOL    HW2 8720   5.289   2.175   0.207
 2710SOL     OW 8721   5.027   2.693   0.036
 2710SOL    HW1 8722   5.059   2.603   0.043
 2710SOL    HW2 8723   5.042   2.717  -0.056
 2711SOL     OW 8724   4.792   3.199   0.849
 2711SOL    HW1 8725   4.796   3.122   0.791
 2711SOL    HW2 8726   4.854   3.260   0.811
 2712SOL     OW 8727   4.042   2.680   0.930
 2712SOL    HW1 8728   4.136   2.699   0.935
 2712SOL    HW2 8729   4.035   2.590   0.962
 2713SOL     OW 8730   4.039   2.379   0.928
 2713SOL    HW1 8731   4.022   2.297   0.974
 2713SOL    HW2 8732   4.132   2.376   0.908
 2714SOL     OW 8733   4.859   2.235   1.679
 2714SOL    HW1 8734   4.817   2.297   1.738
 2714SOL    HW2 8735   4.947   2.272   1.665
 2715SOL     OW 8736   3.729   3.192   0.200
 2715SOL    HW1 8737   3.641   3.203   0.163
 2715SOL    HW2 8738   3.735   3.098   0.219
 2716SOL     OW 8739   3.811   3.667   0.910
 2716SOL    HW1 8740   3.779   3.579   0.890
 2716SOL    HW2 8741   3.906   3.661   0.896
 2717SOL     OW 8742   4.224   3.435   0.892
 2717SOL    HW1 8743   4.294   3.497   0.915
 2717SOL    HW2 8744   4.270   3.356   0.865
 2718SOL     OW 8745   3.924   2.385   1.724
 2718SOL    HW1 8746   3.974   2.347   1.652
 2718SOL    HW2 8747   3.870   2.453   1.683
 2719SOL     OW 8748   5.106   2.806   1.654
 2719SOL    HW1 8749   5.122   2.899   1.672
 2719SOL    HW2 8750   5.084   2.802   1.561
 2720SOL     OW 8751   4.538   2.432   0.344
 2720SOL    HW1 8752   4.542   2.354   0.289
 2720SOL    HW2 8753   4.455   2.474   0.322
 2721SOL     OW 8754   3.995   3.419   1.745
 2721SOL    HW1 8755   3.949   3.483   1.800
 2721SOL    HW2 8756   3.964   3.334   1.775
 2722SOL     OW 8757   4.652   3.545   1.480
 2722SOL    HW1 8758   4.625   3.524   1.390
 2722SOL    HW2 8759   4.677   3.637   1.478
 2723SOL     OW 8760   4.194   2.356   0.198
 2723SOL    HW1 8761   4.250   2.434   0.202
 2723SOL    HW2 8762   4.105   2.391   0.190
 2724SOL     OW 8763   3.874   2.993   1.492
 2724SOL    HW1 8764   3.912   2.932   1.555
 2724SOL    HW2 8765   3.886   2.950   1.407
 2725SOL     OW 8766   5.030   2.711   0.311
 2725SOL    HW1 8767   4.945   2.689   0.350
 2725SOL    HW2 8768   5.014   2.707   0.217
 2726SOL     OW 8769   5.482   3.610   1.144
 2726SOL    HW1 8770   5.547   3.635   1.079
 2726SOL    HW2 8771   5.459   3.520   1.122
 2727SOL     OW 8772   4.408   3.528   1.728
 2727SOL    HW1 8773   4.352   3.605   1.723
 2727SOL    HW2 8774   4.459   3.529   1.646
 2728SOL     OW 8775   4.630   1.953   0.129
 2728SOL    HW1 8776   4.678   1.939   0.047
 2728SOL    HW2 8777   4.679   1.903   0.194
 2729SOL     OW 8778   5.442   1.999   0.516
 2729SOL    HW1 8779   5.517   1.985   0.459
 2729SOL    HW2 8780   5.426   1.914   0.558
 2730SOL     OW 8781   5.114   3.431   0.480
 2730SOL    HW1 8782   5.174   3.457   0.410
 2730SOL    HW2 8783   5.070   3.512   0.505
 2731SOL     OW 8784   3.853   3.645   1.853
 2731SOL    HW1 8785   3.801   3.597   1.917
 2731SOL    HW2 8786   3.909   3.702   1.906
 2732SOL     OW 8787   4.999   2.786   0.671
 2732SOL    HW1 8788   5.070   2.721   0.674
 2732SOL    HW2 8789   5.034   2.858   0.619
 2733SOL     OW 8790   4.516   3.100   1.486
 2733SOL    HW1 8791   4.511   3.172   1.549
 2733SOL    HW2 8792   4.475   3.135   1.406
 2734SOL     OW 8793   4.399   3.474   0.160
 2734SOL    HW1 8794   4.394   3.494   0.067
 2734SOL    HW2 8795   4.348   3.394   0.171
 2735SOL     OW 8796   5.382   3.587   1.396
 2735SOL    HW1 8797   5.416   3.604   1.308
 2735SOL    HW2 8798   5.349   3.673   1.425
 2736SOL     OW 8799   5.577   2.052   0.916
 2736SOL    HW1 8800   5.606   1.961   0.923
 2736SOL    HW2 8801   5.482   2.047   0.922
 2737SOL     OW 8802   3.989   2.180   0.718
 2737SOL    HW1 8803   3.910   2.222   0.684
 2737SOL    HW2 8804   3.972   2.172   0.812
 2738SOL     OW 8805   4.911   3.477   0.053
 2738SOL    HW1 8806   4.915   3.384   0.076
 2738SOL    HW2 8807   4.885   3.478  -0.039
 2739SOL     OW 8808   4.640   2.773   0.290
 2739SOL    HW1 8809   4.702   2.807   0.225
 2739SOL    HW2 8810   4.685   2.698   0.329
 2740SOL     OW 8811   5.228   3.483   0.044
 2740SOL    HW1 8812   5.134   3.494   0.037
 2740SOL    HW2 8813   5.260   3.495  -0.046
 2741SOL     OW 8814   4.089   3.158   1.499
 2741SOL    HW1 8815   4.084   3.237   1.445
 2741SOL    HW2 8816   4.011   3.108   1.477
 2742SOL     OW 8817   4.768   2.963   0.702
 2742SOL    HW1 8818   4.697   2.912   0.742
 2742SOL    HW2 8819   4.824   2.898   0.661
 2743SOL     OW 8820   4.750   2.101   0.935
 2743SOL    HW1 8821   4.737   2.046   0.858
 2743SOL    HW2 8822   4.733   2.043   1.009
 2744SOL     OW 8823   4.321   3.352   0.485
 2744SOL    HW1 8824   4.356   3.298   0.414
 2744SOL    HW2 8825   4.265   3.415   0.442
 2745SOL     OW 8826   3.984   3.211   0.288
 2745SOL    HW1 8827   3.892   3.207   0.261
 2745SOL    HW2 8828   3.982   3.251   0.375
 2746SOL     OW 8829   4.397   2.060   1.498
 2746SOL    HW1 8830   4.483   2.064   1.457
 2746SOL    HW2 8831   4.413   2.079   1.590
 2747SOL     OW 8832   3.792   2.205   0.037
 2747SOL    HW1 8833   3.702   2.186   0.010
 2747SOL    HW2 8834   3.817   2.283  -0.013
 2748SOL     OW 8835   3.796   2.024   0.317
 2748SOL    HW1 8836   3.782   2.103   0.265
 2748SOL    HW2 8837   3.882   1.991   0.288
 2749SOL     OW 8838   4.909   3.212   0.119
 2749SOL    HW1 8839   4.818   3.183   0.116
 2749SOL    HW2 8840   4.934   3.202   0.211
 2750SOL     OW 8841   4.372   2.718   1.492
 2750SOL    HW1 8842   4.393   2.790   1.433
 2750SOL    HW2 8843   4.404   2.640   1.447
 2751SOL     OW 8844   5.220   3.631   0.958
 2751SOL    HW1 8845   5.250   3.693   0.892
 2751SOL    HW2 8846   5.289   3.632   1.025
 2752SOL     OW 8847   4.427   2.424   1.728
 2752SOL    HW1 8848   4.467   2.494   1.779
 2752SOL    HW2 8849   4.493   2.354   1.728
 2753SOL     OW 8850   5.181   3.065   1.633
 2753SOL    HW1 8851   5.174   3.082   1.727
 2753SOL    HW2 8852   5.273   3.083   1.613
 2754SOL     OW 8853   4.107   3.603   1.560
 2754SOL    HW1 8854   4.019   3.639   1.551
 2754SOL    HW2 8855   4.095   3.517   1.600
 2755SOL     OW 8856   4.946   2.183   0.454
 2755SOL    HW1 8857   5.011   2.113   0.445
 2755SOL    HW2 8858   4.973   2.230   0.533
 2756SOL     OW 8859   4.315   2.608   0.664
 2756SOL    HW1 8860   4.359   2.690   0.640
 2756SOL    HW2 8861   4.241   2.602   0.603
 2757SOL     OW 8862   5.489   2.228   1.649
 2757SOL    HW1 8863   5.490   2.226   1.554
 2757SOL    HW2 8864   5.424   2.163   1.674
 2758SOL     OW 8865   5.460   2.796   1.513
 2758SOL    HW1 8866   5.475   2.888   1.534
 2758SOL    HW2 8867   5.445   2.794   1.419
 2759SOL     OW 8868   4.632   3.239   0.042
 2759SOL    HW1 8869   4.557   3.240   0.102
 2759SOL    HW2 8870   4.622   3.320  -0.009
 2760SOL     OW 8871   4.385   3.653   0.913
 2760SOL    HW1 8872   4.356   3.744   0.922
 2760SOL    HW2 8873   4.477   3.655   0.939
 2761SOL     OW 8874   4.586   2.823   0.862
 2761SOL    HW1 8875   4.629   2.753   0.911
 2761SOL    HW2 8876   4.559   2.886   0.929
 2762SOL     OW 8877   4.821   2.864   0.100
 2762SOL    HW1 8878   4.771   2.877   0.019
 2762SOL    HW2 8879   4.889   2.801   0.077
 2763SOL     OW 8880   5.574   3.426   0.857
 2763SOL    HW1 8881   5.512   3.412   0.786
 2763SOL    HW2 8882   5.584   3.340   0.898
 2764SOL     OW 8883   3.806   3.101   0.660
 2764SOL    HW1 8884   3.807   3.047   0.739
 2764SOL    HW2 8885   3.878   3.068   0.607
 2765SOL     OW 8886   4.395   3.275   1.635
 2765SOL    HW1 8887   4.318   3.225   1.662
 2765SOL    HW2 8888   4.384   3.361   1.676
 2766SOL     OW 8889   4.155   2.292   0.523
 2766SOL    HW1 8890   4.180   2.221   0.465
 2766SOL    HW2 8891   4.110   2.249   0.596
 2767SOL     OW 8892   4.547   3.439   0.680
 2767SOL    HW1 8893   4.550   3.468   0.589
 2767SOL    HW2 8894   4.464   3.393   0.689
 2768SOL     OW 8895   4.492   3.193   0.304
 2768SOL    HW1 8896   4.456   3.105   0.317
 2768SOL    HW2 8897   4.578   3.190   0.345
 2769SOL     OW 8898   5.076   1.914   0.166
 2769SOL    HW1 8899   5.102   1.871   0.086
 2769SOL    HW2 8900   4.990   1.877   0.187
 2770SOL     OW 8901   5.025   2.322   0.683
 2770SOL    HW1 8902   4.967   2.397   0.695
 2770SOL    HW2 8903   5.026   2.278   0.768
 2771SOL     OW 8904   5.307   2.077   0.884
 2771SOL    HW1 8905   5.220   2.091   0.921
 2771SOL    HW2 8906   5.320   2.149   0.823
 2772SOL     OW 8907   3.764   2.937   0.303
 2772SOL    HW1 8908   3.859   2.930   0.295
 2772SOL    HW2 8909   3.736   2.851   0.333
 2773SOL     OW 8910   4.601   3.508   0.347
 2773SOL    HW1 8911   4.531   3.487   0.286
 2773SOL    HW2 8912   4.569   3.584   0.395
 2774SOL     OW 8913   3.948   2.138   2.852
 2774SOL    HW1 8914   3.978   2.113   2.940
 2774SOL    HW2 8915   3.860   2.102   2.846
 2775SOL     OW 8916   3.733   2.240   2.501
 2775SOL    HW1 8917   3.652   2.266   2.544
 2775SOL    HW2 8918   3.710   2.161   2.452
 2776SOL     OW 8919   4.291   3.138   3.030
 2776SOL    HW1 8920   4.203   3.139   2.993
 2776SOL    HW2 8921   4.303   3.225   3.067
 2777SOL     OW 8922   5.278   3.374   2.565
 2777SOL    HW1 8923   5.229   3.359   2.646
 2777SOL    HW2 8924   5.211   3.381   2.497
 2778SOL     OW 8925   4.854   2.563   2.572
 2778SOL    HW1 8926   4.907   2.641   2.555
 2778SOL    HW2 8927   4.805   2.584   2.652
 2779SOL     OW 8928   5.484   2.470   2.095
 2779SOL    HW1 8929   5.468   2.459   2.002
 2779SOL    HW2 8930   5.451   2.390   2.135
 2780SOL     OW 8931   4.489   3.008   2.893
 2780SOL    HW1 8932   4.416   3.036   2.949
 2780SOL    HW2 8933   4.519   3.088   2.851
 2781SOL     OW 8934   4.410   2.875   2.518
 2781SOL    HW1 8935   4.473   2.856   2.587
 2781SOL    HW2 8936   4.340   2.923   2.561
 2782SOL     OW 8937   4.056   3.296   2.929
 2782SOL    HW1 8938   3.985   3.262   2.875
 2782SOL    HW2 8939   4.110   3.347   2.868
 2783SOL     OW 8940   5.190   3.361   3.202
 2783SOL    HW1 8941   5.220   3.450   3.220
 2783SOL    HW2 8942   5.152   3.331   3.284
 2784SOL     OW 8943   4.168   2.259   3.353
 2784SOL    HW1 8944   4.242   2.198   3.360
 2784SOL    HW2 8945   4.090   2.204   3.364
 2785SOL     OW 8946   5.335   2.312   2.599
 2785SOL    HW1 8947   5.260   2.347   2.551
 2785SOL    HW2 8948   5.367   2.386   2.651
 2786SOL     OW 8949   3.949   3.573   2.342
 2786SOL    HW1 8950   3.978   3.650   2.392
 2786SOL    HW2 8951   4.007   3.571   2.265
 2787SOL     OW 8952   3.949   3.299   2.394
 2787SOL    HW1 8953   3.934   3.393   2.404
 2787SOL    HW2 8954   3.887   3.258   2.454
 2788SOL     OW 8955   3.972   2.953   2.750
 2788SOL    HW1 8956   3.973   2.869   2.797
 2788SOL    HW2 8957   3.914   3.008   2.802
 2789SOL     OW 8958   4.344   3.649   3.299
 2789SOL    HW1 8959   4.258   3.635   3.339
 2789SOL    HW2 8960   4.364   3.741   3.318
 2790SOL     OW 8961   4.327   2.829   1.994
 2790SOL    HW1 8962   4.350   2.893   1.927
 2790SOL    HW2 8963   4.372   2.859   2.073
 2791SOL     OW 8964   5.318   1.979   3.343
 2791SOL    HW1 8965   5.309   2.051   3.279
 2791SOL    HW2 8966   5.313   2.022   3.428
 2792SOL     OW 8967   3.849   2.506   2.427
 2792SOL    HW1 8968   3.807   2.421   2.442
 2792SOL    HW2 8969   3.832   2.555   2.507
 2793SOL     OW 8970   5.566   3.627   2.206
 2793SOL    HW1 8971   5.618   3.598   2.282
 2793SOL    HW2 8972   5.597   3.715   2.188
 2794SOL     OW 8973   5.414   2.782   2.491
 2794SOL    HW1 8974   5.503   2.749   2.479
 2794SOL    HW2 8975   5.398   2.834   2.411
 2795SOL     OW 8976   5.368   2.970   2.294
 2795SOL    HW1 8977   5.451   2.981   2.247
 2795SOL    HW2 8978   5.375   3.028   2.369
 2796SOL     OW 8979   3.842   2.598   3.449
 2796SOL    HW1 8980   3.931   2.609   3.481
 2796SOL    HW2 8981   3.807   2.687   3.444
 2797SOL     OW 8982   4.336   3.237   2.595
 2797SOL    HW1 8983   4.290   3.153   2.601
 2797SOL    HW2 8984   4.318   3.267   2.506
 2798SOL     OW 8985   5.022   3.099   3.297
 2798SOL    HW1 8986   5.051   3.032   3.234
 2798SOL    HW2 8987   5.074   3.081   3.376
 2799SOL     OW 8988   4.532   1.860   2.363
 2799SOL    HW1 8989   4.573   1.946   2.355
 2799SOL    HW2 8990   4.439   1.879   2.376
 2800SOL     OW 8991   3.919   2.836   3.125
 2800SOL    HW1 8992   4.002   2.789   3.112
 2800SOL    HW2 8993   3.852   2.773   3.100
 2801SOL     OW 8994   5.257   2.852   2.054
 2801SOL    HW1 8995   5.187   2.791   2.077
 2801SOL    HW2 8996   5.292   2.882   2.139
 2802SOL     OW 8997   5.188   3.282   2.816
 2802SOL    HW1 8998   5.123   3.291   2.885
 2802SOL    HW2 8999   5.177   3.192   2.785
 2803SOL     OW 9000   5.389   3.585   2.437
 2803SOL    HW1 9001   5.357   3.559   2.351
 2803SOL    HW2 9002   5.364   3.513   2.495
 2804SOL     OW 9003   4.320   2.584   2.128
 2804SOL    HW1 9004   4.334   2.657   2.067
 2804SOL    HW2 9005   4.250   2.615   2.187
 2805SOL     OW 9006   5.006   2.206   2.796
 2805SOL    HW1 9007   4.918   2.168   2.799
 2805SOL    HW2 9008   5.056   2.155   2.859
 2806SOL     OW 9009   5.305   3.527   2.170
 2806SOL    HW1 9010   5.391   3.567   2.166
 2806SOL    HW2 9011   5.283   3.507   2.079
 2807SOL     OW 9012   4.527   2.472   3.318
 2807SOL    HW1 9013   4.491   2.459   3.405
 2807SOL    HW2 9014   4.475   2.413   3.262
 2808SOL     OW 9015   4.692   2.757   3.432
 2808SOL    HW1 9016   4.738   2.680   3.397
 2808SOL    HW2 9017   4.637   2.787   3.360
 2809SOL     OW 9018   4.715   2.273   3.105
 2809SOL    HW1 9019   4.635   2.303   3.147
 2809SOL    HW2 9020   4.686   2.226   3.027
 2810SOL     OW 9021   4.771   2.560   2.290
 2810SOL    HW1 9022   4.785   2.555   2.385
 2810SOL    HW2 9023   4.689   2.514   2.275
 2811SOL     OW 9024   3.810   2.679   2.637
 2811SOL    HW1 9025   3.896   2.670   2.680
 2811SOL    HW2 9026   3.774   2.759   2.674
 2812SOL     OW 9027   3.855   3.690   3.439
 2812SOL    HW1 9028   3.838   3.667   3.530
 2812SOL    HW2 9029   3.768   3.710   3.403
 2813SOL     OW 9030   4.598   2.207   2.056
 2813SOL    HW1 9031   4.649   2.267   2.001
 2813SOL    HW2 9032   4.620   2.120   2.023
 2814SOL     OW 9033   5.094   3.006   2.406
 2814SOL    HW1 9034   5.171   2.986   2.353
 2814SOL    HW2 9035   5.044   3.068   2.353
 2815SOL     OW 9036   4.272   2.051   2.751
 2815SOL    HW1 9037   4.273   2.069   2.845
 2815SOL    HW2 9038   4.276   2.138   2.711
 2816SOL     OW 9039   4.735   3.312   2.338
 2816SOL    HW1 9040   4.691   3.381   2.289
 2816SOL    HW2 9041   4.726   3.337   2.430
 2817SOL     OW 9042   4.076   3.665   2.714
 2817SOL    HW1 9043   4.124   3.582   2.725
 2817SOL    HW2 9044   4.144   3.732   2.723
 2818SOL     OW 9045   5.521   2.926   2.729
 2818SOL    HW1 9046   5.459   2.912   2.657
 2818SOL    HW2 9047   5.466   2.931   2.807
 2819SOL     OW 9048   4.956   3.400   3.353
 2819SOL    HW1 9049   4.954   3.323   3.410
 2819SOL    HW2 9050   4.891   3.381   3.285
 2820SOL     OW 9051   5.192   2.596   2.589
 2820SOL    HW1 9052   5.181   2.545   2.670
 2820SOL    HW2 9053   5.267   2.653   2.607
 2821SOL     OW 9054   4.843   3.637   2.097
 2821SOL    HW1 9055   4.774   3.589   2.143
 2821SOL    HW2 9056   4.861   3.585   2.019
 2822SOL     OW 9057   3.927   2.140   3.352
 2822SOL    HW1 9058   3.852   2.196   3.334
 2822SOL    HW2 9059   3.908   2.099   3.436
 2823SOL     OW 9060   5.355   3.240   1.948
 2823SOL    HW1 9061   5.316   3.326   1.932
 2823SOL    HW2 9062   5.285   3.177   1.930
 2824SOL     OW 9063   4.190   3.602   2.184
 2824SOL    HW1 9064   4.227   3.653   2.257
 2824SOL    HW2 9065   4.265   3.586   2.126
 2825SOL     OW 9066   5.125   1.970   2.290
 2825SOL    HW1 9067   5.108   1.942   2.200
 2825SOL    HW2 9068   5.220   1.979   2.295
 2826SOL     OW 9069   3.976   3.652   3.099
 2826SOL    HW1 9070   4.029   3.588   3.146
 2826SOL    HW2 9071   3.963   3.613   3.012
 2827SOL     OW 9072   4.664   3.560   2.765
 2827SOL    HW1 9073   4.740   3.504   2.782
 2827SOL    HW2 9074   4.616   3.515   2.696
 2828SOL     OW 9075   4.108   2.561   2.341
 2828SOL    HW1 9076   4.143   2.472   2.344
 2828SOL    HW2 9077   4.016   2.552   2.367
 2829SOL     OW 9078   4.345   1.990   1.975
 2829SOL    HW1 9079   4.430   1.946   1.979
 2829SOL    HW2 9080   4.305   1.959   1.894
 2830SOL     OW 9081   4.605   3.380   3.056
 2830SOL    HW1 9082   4.589   3.347   2.967
 2830SOL    HW2 9083   4.669   3.320   3.092
 2831SOL     OW 9084   5.066   2.451   3.302
 2831SOL    HW1 9085   5.107   2.421   3.383
 2831SOL    HW2 9086   5.102   2.538   3.287
 2832SOL     OW 9087   4.532   3.265   2.792
 2832SOL    HW1 9088   4.616   3.263   2.746
 2832SOL    HW2 9089   4.466   3.258   2.723
 2833SOL     OW 9090   4.649   2.369   2.765
 2833SOL    HW1 9091   4.625   2.359   2.673
 2833SOL    HW2 9092   4.687   2.285   2.789
 2834SOL     OW 9093   4.270   1.922   2.372
 2834SOL    HW1 9094   4.188   1.927   2.422
 2834SOL    HW2 9095   4.273   2.003   2.322
 2835SOL     OW 9096   5.155   3.057   1.903
 2835SOL    HW1 9097   5.185   2.982   1.955
 2835SOL    HW2 9098   5.067   3.076   1.936
 2836SOL     OW 9099   4.658   2.101   2.334
 2836SOL    HW1 9100   4.623   2.144   2.256
 2836SOL    HW2 9101   4.753   2.108   2.325
 2837SOL     OW 9102   4.803   2.540   3.324
 2837SOL    HW1 9103   4.730   2.477   3.321
 2837SOL    HW2 9104   4.881   2.487   3.309
 2838SOL     OW 9105   4.949   3.432   2.656
 2838SOL    HW1 9106   4.971   3.500   2.593
 2838SOL    HW2 9107   5.017   3.438   2.723
 2839SOL     OW 9108   4.187   3.008   2.603
 2839SOL    HW1 9109   4.115   2.990   2.663
 2839SOL    HW2 9110   4.152   2.989   2.516
 2840SOL     OW 9111   4.997   3.659   2.462
 2840SOL    HW1 9112   5.037   3.721   2.400
 2840SOL    HW2 9113   4.938   3.712   2.515
 2841SOL     OW 9114   4.753   2.410   1.878
 2841SOL    HW1 9115   4.713   2.492   1.851
 2841SOL    HW2 9116   4.815   2.435   1.947
 2842SOL     OW 9117   3.800   2.414   3.254
 2842SOL    HW1 9118   3.889   2.416   3.220
 2842SOL    HW2 9119   3.796   2.487   3.316
 2843SOL     OW 9120   4.289   2.088   3.021
 2843SOL    HW1 9121   4.320   2.003   3.053
 2843SOL    HW2 9122   4.198   2.092   3.050
 2844SOL     OW 9123   4.594   2.320   2.503
 2844SOL    HW1 9124   4.552   2.378   2.439
 2844SOL    HW2 9125   4.612   2.240   2.454
 2845SOL     OW 9126   4.738   1.911   2.618
 2845SOL    HW1 9127   4.677   1.904   2.545
 2845SOL    HW2 9128   4.718   1.836   2.673
 2846SOL     OW 9129   5.157   3.028   2.723
 2846SOL    HW1 9130   5.095   2.956   2.718
 2846SOL    HW2 9131   5.178   3.049   2.632
 2847SOL     OW 9132   5.194   2.458   2.849
 2847SOL    HW1 9133   5.154   2.371   2.856
 2847SOL    HW2 9134   5.258   2.461   2.921
 2848SOL     OW 9135   5.574   2.687   2.242
 2848SOL    HW1 9136   5.625   2.629   2.298
 2848SOL    HW2 9137   5.544   2.630   2.171
 2849SOL     OW 9138   4.216   3.266   2.032
 2849SOL    HW1 9139   4.136   3.236   2.076
 2849SOL    HW2 9140   4.195   3.261   1.939
 2850SOL     OW 9141   5.390   3.131   2.518
 2850SOL    HW1 9142   5.484   3.142   2.527
 2850SOL    HW2 9143   5.354   3.218   2.539
 2851SOL     OW 9144   5.116   2.435   1.935
 2851SOL    HW1 9145   5.060   2.416   2.010
 2851SOL    HW2 9146   5.202   2.399   1.959
 2852SOL     OW 9147   4.283   2.127   2.200
 2852SOL    HW1 9148   4.298   2.072   2.124
 2852SOL    HW2 9149   4.267   2.214   2.164
 2853SOL     OW 9150   5.486   3.082   3.433
 2853SOL    HW1 9151   5.578   3.056   3.433
 2853SOL    HW2 9152   5.485   3.171   3.469
 2854SOL     OW 9153   4.791   3.214   3.201
 2854SOL    HW1 9154   4.714   3.183   3.248
 2854SOL    HW2 9155   4.865   3.170   3.244
 2855SOL     OW 9156   4.842   3.061   2.969
 2855SOL    HW1 9157   4.787   3.101   3.036
 2855SOL    HW2 9158   4.805   3.092   2.886
 2856SOL     OW 9159   5.360   2.964   2.940
 2856SOL    HW1 9160   5.357   3.030   3.010
 2856SOL    HW2 9161   5.276   2.973   2.895
 2857SOL     OW 9162   4.641   1.960   3.268
 2857SOL    HW1 9163   4.660   1.937   3.177
 2857SOL    HW2 9164   4.721   2.003   3.299
 2858SOL     OW 9165   4.431   2.920   2.236
 2858SOL    HW1 9166   4.421   2.910   2.331
 2858SOL    HW2 9167   4.507   2.867   2.214
 2859SOL     OW 9168   4.138   2.674   3.112
 2859SOL    HW1 9169   4.209   2.685   3.175
 2859SOL    HW2 9170   4.100   2.589   3.133
 2860SOL     OW 9171   4.995   2.243   3.131
 2860SOL    HW1 9172   5.022   2.321   3.180
 2860SOL    HW2 9173   4.909   2.265   3.096
 2861SOL     OW 9174   3.790   3.434   3.197
 2861SOL    HW1 9175   3.755   3.512   3.153
 2861SOL    HW2 9176   3.885   3.448   3.199
 2862SOL     OW 9177   4.078   2.967   2.359
 2862SOL    HW1 9178   4.088   3.040   2.298
 2862SOL    HW2 9179   4.099   2.889   2.307
 2863SOL     OW 9180   4.285   2.400   2.725
 2863SOL    HW1 9181   4.302   2.460   2.653
 2863SOL    HW2 9182   4.339   2.433   2.797
 2864SOL     OW 9183   4.973   3.209   2.252
 2864SOL    HW1 9184   5.024   3.283   2.285
 2864SOL    HW2 9185   4.884   3.225   2.285
 2865SOL     OW 9186   4.995   3.314   3.006
 2865SOL    HW1 9187   5.047   3.317   3.086
 2865SOL    HW2 9188   4.941   3.236   3.016
 2866SOL     OW 9189   5.308   2.494   2.336
 2866SOL    HW1 9190   5.271   2.555   2.400
 2866SOL    HW2 9191   5.353   2.550   2.273
 2867SOL     OW 9192   4.075   3.379   3.186
 2867SOL    HW1 9193   4.059   3.336   3.102
 2867SOL    HW2 9194   4.169   3.395   3.188
 2868SOL     OW 9195   4.126   2.611   3.463
 2868SOL    HW1 9196   4.190   2.662   3.414
 2868SOL    HW2 9197   4.172   2.529   3.483
 2869SOL     OW 9198   5.316   2.629   3.527
 2869SOL    HW1 9199   5.237   2.683   3.537
 2869SOL    HW2 9200   5.376   2.684   3.476
 2870SOL     OW 9201   4.304   2.732   2.893
 2870SOL    HW1 9202   4.335   2.822   2.886
 2870SOL    HW2 9203   4.244   2.733   2.968
 2871SOL     OW 9204   5.086   2.723   2.902
 2871SOL    HW1 9205   5.010   2.719   2.844
 2871SOL    HW2 9206   5.118   2.633   2.905
 2872SOL     OW 9207   4.937   2.391   2.136
 2872SOL    HW1 9208   4.941   2.311   2.189
 2872SOL    HW2 9209   4.896   2.456   2.193
 2873SOL     OW 9210   4.030   2.068   3.102
 2873SOL    HW1 9211   3.997   2.101   3.186
 2873SOL    HW2 9212   4.004   1.976   3.100
 2874SOL     OW 9213   3.771   3.171   3.139
 2874SOL    HW1 9214   3.805   3.123   3.215
 2874SOL    HW2 9215   3.778   3.263   3.163
 2875SOL     OW 9216   4.455   2.496   2.926
 2875SOL    HW1 9217   4.519   2.475   2.858
 2875SOL    HW2 9218   4.425   2.585   2.904
 2876SOL     OW 9219   4.026   1.930   2.484
 2876SOL    HW1 9220   4.011   2.019   2.514
 2876SOL    HW2 9221   4.026   1.877   2.564
 2877SOL     OW 9222   5.335   2.230   2.233
 2877SOL    HW1 9223   5.359   2.166   2.300
 2877SOL    HW2 9224   5.308   2.308   2.282
 2878SOL     OW 9225   4.749   2.625   2.827
 2878SOL    HW1 9226   4.756   2.642   2.921
 2878SOL    HW2 9227   4.722   2.533   2.821
 2879SOL     OW 9228   5.587   3.351   3.445
 2879SOL    HW1 9229   5.600   3.395   3.362
 2879SOL    HW2 9230   5.635   3.404   3.509
 2880SOL     OW 9231   5.258   2.137   1.990
 2880SOL    HW1 9232   5.198   2.068   2.018
 2880SOL    HW2 9233   5.289   2.177   2.071
 2881SOL     OW 9234   5.025   2.694   1.900
 2881SOL    HW1 9235   5.062   2.605   1.904
 2881SOL    HW2 9236   5.049   2.725   1.813
 2882SOL     OW 9237   4.790   3.196   2.713
 2882SOL    HW1 9238   4.794   3.121   2.653
 2882SOL    HW2 9239   4.853   3.258   2.677
 2883SOL     OW 9240   4.038   2.675   2.812
 2883SOL    HW1 9241   4.132   2.697   2.810
 2883SOL    HW2 9242   4.035   2.588   2.852
 2884SOL     OW 9243   4.061   2.377   2.871
 2884SOL    HW1 9244   4.020   2.293   2.852
 2884SOL    HW2 9245   4.135   2.382   2.810
 2885SOL     OW 9246   4.873   2.077   3.339
 2885SOL    HW1 9247   4.893   2.138   3.410
 2885SOL    HW2 9248   4.914   2.116   3.262
 2886SOL     OW 9249   3.814   3.657   2.795
 2886SOL    HW1 9250   3.780   3.575   2.756
 2886SOL    HW2 9251   3.903   3.664   2.762
 2887SOL     OW 9252   4.226   3.434   2.766
 2887SOL    HW1 9253   4.296   3.497   2.788
 2887SOL    HW2 9254   4.272   3.362   2.722
 2888SOL     OW 9255   4.720   2.659   3.093
 2888SOL    HW1 9256   4.764   2.630   3.173
 2888SOL    HW2 9257   4.630   2.627   3.103
 2889SOL     OW 9258   3.761   2.404   2.978
 2889SOL    HW1 9259   3.844   2.381   2.935
 2889SOL    HW2 9260   3.784   2.415   3.070
 2890SOL     OW 9261   4.536   2.430   2.208
 2890SOL    HW1 9262   4.542   2.355   2.148
 2890SOL    HW2 9263   4.459   2.478   2.178
 2891SOL     OW 9264   5.369   2.462   3.056
 2891SOL    HW1 9265   5.354   2.401   3.129
 2891SOL    HW2 9266   5.455   2.438   3.023
 2892SOL     OW 9267   4.007   3.417   0.059
 2892SOL    HW1 9268   3.949   3.476   0.107
 2892SOL    HW2 9269   3.973   3.330   0.075
 2893SOL     OW 9270   4.410   2.319   3.129
 2893SOL    HW1 9271   4.363   2.243   3.095
 2893SOL    HW2 9272   4.415   2.379   3.054
 2894SOL     OW 9273   4.664   3.537   3.330
 2894SOL    HW1 9274   4.631   3.513   3.244
 2894SOL    HW2 9275   4.670   3.632   3.328
 2895SOL     OW 9276   3.881   3.001   3.330
 2895SOL    HW1 9277   3.890   2.941   3.404
 2895SOL    HW2 9278   3.893   2.945   3.253
 2896SOL     OW 9279   5.060   2.916   3.093
 2896SOL    HW1 9280   5.086   2.856   3.023
 2896SOL    HW2 9281   4.982   2.959   3.059
 2897SOL     OW 9282   5.029   2.715   2.172
 2897SOL    HW1 9283   4.947   2.689   2.213
 2897SOL    HW2 9284   5.013   2.706   2.078
 2898SOL     OW 9285   5.485   3.612   3.012
 2898SOL    HW1 9286   5.546   3.635   2.942
 2898SOL    HW2 9287   5.461   3.521   2.993
 2899SOL     OW 9288   4.969   3.594   2.985
 2899SOL    HW1 9289   5.051   3.605   2.936
 2899SOL    HW2 9290   4.963   3.500   3.002
 2900SOL     OW 9291   3.807   3.125   2.879
 2900SOL    HW1 9292   3.797   3.131   2.974
 2900SOL    HW2 9293   3.730   3.076   2.849
 2901SOL     OW 9294   5.444   1.999   2.380
 2901SOL    HW1 9295   5.517   1.985   2.321
 2901SOL    HW2 9296   5.427   1.913   2.418
 2902SOL     OW 9297   5.114   3.431   2.342
 2902SOL    HW1 9298   5.174   3.456   2.272
 2902SOL    HW2 9299   5.070   3.512   2.366
 2903SOL     OW 9300   5.001   2.785   2.534
 2903SOL    HW1 9301   5.072   2.720   2.534
 2903SOL    HW2 9302   5.036   2.857   2.481
 2904SOL     OW 9303   4.550   3.132   3.290
 2904SOL    HW1 9304   4.536   3.165   3.379
 2904SOL    HW2 9305   4.470   3.156   3.243
 2905SOL     OW 9306   4.396   3.476   2.018
 2905SOL    HW1 9307   4.405   3.486   1.923
 2905SOL    HW2 9308   4.350   3.393   2.029
 2906SOL     OW 9309   5.365   3.584   3.262
 2906SOL    HW1 9310   5.410   3.593   3.179
 2906SOL    HW2 9311   5.348   3.674   3.290
 2907SOL     OW 9312   5.564   2.035   2.830
 2907SOL    HW1 9313   5.594   1.951   2.795
 2907SOL    HW2 9314   5.476   2.046   2.793
 2908SOL     OW 9315   3.992   2.184   2.582
 2908SOL    HW1 9316   3.909   2.221   2.552
 2908SOL    HW2 9317   3.980   2.172   2.676
 2909SOL     OW 9318   4.925   3.472   1.893
 2909SOL    HW1 9319   4.921   3.381   1.922
 2909SOL    HW2 9320   4.862   3.477   1.820
 2910SOL     OW 9321   4.547   2.867   3.231
 2910SOL    HW1 9322   4.588   2.867   3.145
 2910SOL    HW2 9323   4.552   2.958   3.261
 2911SOL     OW 9324   4.641   2.775   2.154
 2911SOL    HW1 9325   4.701   2.805   2.086
 2911SOL    HW2 9326   4.683   2.697   2.191
 2912SOL     OW 9327   5.227   3.484   1.905
 2912SOL    HW1 9328   5.132   3.490   1.901
 2912SOL    HW2 9329   5.256   3.490   1.814
 2913SOL     OW 9330   4.096   3.161   3.367
 2913SOL    HW1 9331   4.084   3.238   3.312
 2913SOL    HW2 9332   4.022   3.104   3.346
 2914SOL     OW 9333   5.337   3.147   3.146
 2914SOL    HW1 9334   5.394   3.144   3.223
 2914SOL    HW2 9335   5.277   3.219   3.164
 2915SOL     OW 9336   4.767   2.963   2.565
 2915SOL    HW1 9337   4.698   2.912   2.606
 2915SOL    HW2 9338   4.824   2.898   2.524
 2916SOL     OW 9339   4.742   2.101   2.828
 2916SOL    HW1 9340   4.733   2.055   2.745
 2916SOL    HW2 9341   4.736   2.031   2.894
 2917SOL     OW 9342   4.321   3.351   2.348
 2917SOL    HW1 9343   4.357   3.297   2.278
 2917SOL    HW2 9344   4.266   3.415   2.303
 2918SOL     OW 9345   5.434   2.249   3.242
 2918SOL    HW1 9346   5.505   2.312   3.248
 2918SOL    HW2 9347   5.469   2.179   3.186
 2919SOL     OW 9348   3.979   3.208   2.148
 2919SOL    HW1 9349   3.887   3.218   2.123
 2919SOL    HW2 9350   3.984   3.248   2.235
 2920SOL     OW 9351   3.838   2.861   0.026
 2920SOL    HW1 9352   3.759   2.854   0.079
 2920SOL    HW2 9353   3.910   2.853   0.088
 2921SOL     OW 9354   4.394   2.055   3.361
 2921SOL    HW1 9355   4.477   2.044   3.314
 2921SOL    HW2 9356   4.419   2.085   3.448
 2922SOL     OW 9357   3.804   2.177   1.832
 2922SOL    HW1 9358   3.711   2.184   1.852
 2922SOL    HW2 9359   3.832   2.267   1.817
 2923SOL     OW 9360   5.157   2.713   3.263
 2923SOL    HW1 9361   5.110   2.775   3.207
 2923SOL    HW2 9362   5.249   2.725   3.240
 2924SOL     OW 9363   4.906   3.206   1.980
 2924SOL    HW1 9364   4.815   3.179   1.983
 2924SOL    HW2 9365   4.935   3.204   2.071
 2925SOL     OW 9366   4.339   2.698   3.292
 2925SOL    HW1 9367   4.394   2.775   3.278
 2925SOL    HW2 9368   4.401   2.625   3.300
 2926SOL     OW 9369   5.212   3.633   2.829
 2926SOL    HW1 9370   5.245   3.689   2.759
 2926SOL    HW2 9371   5.287   3.623   2.888
 2927SOL     OW 9372   4.445   2.431   0.018
 2927SOL    HW1 9373   4.455   2.490   0.093
 2927SOL    HW2 9374   4.494   2.352   0.043
 2928SOL     OW 9375   4.113   3.601   3.421
 2928SOL    HW1 9376   4.027   3.644   3.418
 2928SOL    HW2 9377   4.096   3.517   3.463
 2929SOL     OW 9378   5.399   2.745   3.118
 2929SOL    HW1 9379   5.382   2.660   3.077
 2929SOL    HW2 9380   5.392   2.808   3.046
 2930SOL     OW 9381   4.946   2.183   2.317
 2930SOL    HW1 9382   5.011   2.113   2.307
 2930SOL    HW2 9383   4.972   2.230   2.396
 2931SOL     OW 9384   4.316   2.606   2.523
 2931SOL    HW1 9385   4.360   2.689   2.503
 2931SOL    HW2 9386   4.241   2.603   2.464
 2932SOL     OW 9387   5.469   2.796   3.376
 2932SOL    HW1 9388   5.474   2.890   3.390
 2932SOL    HW2 9389   5.450   2.786   3.282
 2933SOL     OW 9390   4.589   3.233   1.887
 2933SOL    HW1 9391   4.543   3.257   1.967
 2933SOL    HW2 9392   4.612   3.316   1.846
 2934SOL     OW 9393   4.382   3.657   2.817
 2934SOL    HW1 9394   4.354   3.745   2.791
 2934SOL    HW2 9395   4.477   3.657   2.804
 2935SOL     OW 9396   4.586   2.822   2.720
 2935SOL    HW1 9397   4.638   2.755   2.764
 2935SOL    HW2 9398   4.557   2.880   2.791
 2936SOL     OW 9399   4.806   2.850   1.952
 2936SOL    HW1 9400   4.781   2.896   1.873
 2936SOL    HW2 9401   4.882   2.797   1.926
 2937SOL     OW 9402   5.585   3.424   2.709
 2937SOL    HW1 9403   5.510   3.412   2.650
 2937SOL    HW2 9404   5.577   3.353   2.772
 2938SOL     OW 9405   3.806   3.100   2.519
 2938SOL    HW1 9406   3.803   3.051   2.601
 2938SOL    HW2 9407   3.882   3.065   2.473
 2939SOL     OW 9408   4.376   3.255   3.467
 2939SOL    HW1 9409   4.313   3.202   3.516
 2939SOL    HW2 9410   4.377   3.340   3.512
 2940SOL     OW 9411   5.542   2.050   3.098
 2940SOL    HW1 9412   5.547   1.957   3.121
 2940SOL    HW2 9413   5.550   2.052   3.003
 2941SOL     OW 9414   4.154   2.292   2.383
 2941SOL    HW1 9415   4.185   2.217   2.333
 2941SOL    HW2 9416   4.109   2.254   2.458
 2942SOL     OW 9417   5.426   3.355   2.968
 2942SOL    HW1 9418   5.344   3.324   2.931
 2942SOL    HW2 9419   5.448   3.292   3.036
 2943SOL     OW 9420   4.046   2.411   3.148
 2943SOL    HW1 9421   4.097   2.355   3.207
 2943SOL    HW2 9422   4.074   2.385   3.061
 2944SOL     OW 9423   4.544   3.441   2.546
 2944SOL    HW1 9424   4.554   3.469   2.456
 2944SOL    HW2 9425   4.463   3.390   2.547
 2945SOL     OW 9426   5.154   2.081   2.979
 2945SOL    HW1 9427   5.192   2.011   3.031
 2945SOL    HW2 9428   5.103   2.132   3.041
 2946SOL     OW 9429   4.728   1.888   3.014
 2946SOL    HW1 9430   4.673   1.818   2.978
 2946SOL    HW2 9431   4.817   1.852   3.013
 2947SOL     OW 9432   4.492   3.195   2.171
 2947SOL    HW1 9433   4.456   3.106   2.175
 2947SOL    HW2 9434   4.580   3.187   2.209
 2948SOL     OW 9435   4.343   3.426   3.144
 2948SOL    HW1 9436   4.346   3.505   3.198
 2948SOL    HW2 9437   4.430   3.420   3.105
 2949SOL     OW 9438   5.077   1.914   2.027
 2949SOL    HW1 9439   5.101   1.865   1.948
 2949SOL    HW2 9440   4.991   1.881   2.051
 2950SOL     OW 9441   5.023   2.319   2.549
 2950SOL    HW1 9442   4.967   2.396   2.558
 2950SOL    HW2 9443   5.025   2.281   2.637
 2951SOL     OW 9444   5.314   2.074   2.741
 2951SOL    HW1 9445   5.240   2.086   2.800
 2951SOL    HW2 9446   5.314   2.154   2.687
 2952SOL     OW 9447   4.599   3.506   2.209
 2952SOL    HW1 9448   4.530   3.487   2.146
 2952SOL    HW2 9449   4.569   3.585   2.255
 2953SOL     OW 9450   3.956   4.340   0.130
 2953SOL    HW1 9451   3.863   4.348   0.153
 2953SOL    HW2 9452   3.956   4.319   0.037
 2954SOL     OW 9453   3.733   4.107   0.634
 2954SOL    HW1 9454   3.654   4.123   0.685
 2954SOL    HW2 9455   3.717   4.023   0.591
 2955SOL     OW 9456   4.290   4.999   1.169
 2955SOL    HW1 9457   4.203   5.001   1.130
 2955SOL    HW2 9458   4.303   5.087   1.204
 2956SOL     OW 9459   5.281   5.239   0.702
 2956SOL    HW1 9460   5.230   5.221   0.781
 2956SOL    HW2 9461   5.216   5.248   0.632
 2957SOL     OW 9462   4.854   4.425   0.709
 2957SOL    HW1 9463   4.907   4.503   0.693
 2957SOL    HW2 9464   4.806   4.445   0.790
 2958SOL     OW 9465   5.491   4.329   0.228
 2958SOL    HW1 9466   5.455   4.326   0.139
 2958SOL    HW2 9467   5.451   4.254   0.272
 2959SOL     OW 9468   4.488   4.869   1.032
 2959SOL    HW1 9469   4.415   4.899   1.086
 2959SOL    HW2 9470   4.519   4.949   0.988
 2960SOL     OW 9471   4.578   4.516   1.821
 2960SOL    HW1 9472   4.572   4.588   1.883
 2960SOL    HW2 9473   4.602   4.557   1.738
 2961SOL     OW 9474   4.410   4.736   0.655
 2961SOL    HW1 9475   4.473   4.718   0.725
 2961SOL    HW2 9476   4.340   4.785   0.698
 2962SOL     OW 9477   4.424   4.879   1.803
 2962SOL    HW1 9478   4.472   4.959   1.825
 2962SOL    HW2 9479   4.339   4.910   1.772
 2963SOL     OW 9480   4.056   5.155   1.068
 2963SOL    HW1 9481   3.984   5.126   1.012
 2963SOL    HW2 9482   4.111   5.208   1.010
 2964SOL     OW 9483   5.189   5.226   1.346
 2964SOL    HW1 9484   5.201   5.319   1.364
 2964SOL    HW2 9485   5.153   5.191   1.428
 2965SOL     OW 9486   4.176   4.118   1.546
 2965SOL    HW1 9487   4.251   4.066   1.518
 2965SOL    HW2 9488   4.100   4.066   1.522
 2966SOL     OW 9489   5.334   4.174   0.738
 2966SOL    HW1 9490   5.260   4.209   0.689
 2966SOL    HW2 9491   5.367   4.248   0.788
 2967SOL     OW 9492   4.854   5.066   1.689
 2967SOL    HW1 9493   4.897   5.063   1.775
 2967SOL    HW2 9494   4.804   4.985   1.685
 2968SOL     OW 9495   3.946   5.165   0.531
 2968SOL    HW1 9496   3.930   5.257   0.554
 2968SOL    HW2 9497   3.888   5.115   0.588
 2969SOL     OW 9498   3.970   4.813   0.886
 2969SOL    HW1 9499   3.975   4.731   0.935
 2969SOL    HW2 9500   3.915   4.871   0.940
 2970SOL     OW 9501   4.320   4.694   0.135
 2970SOL    HW1 9502   4.340   4.760   0.069
 2970SOL    HW2 9503   4.373   4.719   0.211
 2971SOL     OW 9504   5.317   3.841   1.471
 2971SOL    HW1 9505   5.309   3.919   1.417
 2971SOL    HW2 9506   5.312   3.873   1.561
 2972SOL     OW 9507   3.841   4.372   0.561
 2972SOL    HW1 9508   3.808   4.283   0.579
 2972SOL    HW2 9509   3.833   4.417   0.645
 2973SOL     OW 9510   3.745   5.335   0.144
 2973SOL    HW1 9511   3.728   5.241   0.156
 2973SOL    HW2 9512   3.715   5.375   0.225
 2974SOL     OW 9513   5.414   4.643   0.628
 2974SOL    HW1 9514   5.504   4.612   0.618
 2974SOL    HW2 9515   5.398   4.696   0.550
 2975SOL     OW 9516   5.369   4.831   0.434
 2975SOL    HW1 9517   5.450   4.845   0.384
 2975SOL    HW2 9518   5.376   4.891   0.508
 2976SOL     OW 9519   3.845   4.471   1.592
 2976SOL    HW1 9520   3.932   4.474   1.631
 2976SOL    HW2 9521   3.814   4.562   1.595
 2977SOL     OW 9522   4.333   5.099   0.734
 2977SOL    HW1 9523   4.288   5.015   0.739
 2977SOL    HW2 9524   4.317   5.129   0.644
 2978SOL     OW 9525   5.016   4.961   1.425
 2978SOL    HW1 9526   5.050   4.892   1.368
 2978SOL    HW2 9527   5.068   4.954   1.505
 2979SOL     OW 9528   4.532   3.723   0.498
 2979SOL    HW1 9529   4.572   3.809   0.494
 2979SOL    HW2 9530   4.439   3.740   0.514
 2980SOL     OW 9531   3.919   4.697   1.267
 2980SOL    HW1 9532   4.002   4.654   1.247
 2980SOL    HW2 9533   3.853   4.636   1.234
 2981SOL     OW 9534   5.250   4.721   0.195
 2981SOL    HW1 9535   5.187   4.653   0.218
 2981SOL    HW2 9536   5.291   4.745   0.278
 2982SOL     OW 9537   4.049   3.972   1.810
 2982SOL    HW1 9538   4.104   4.051   1.808
 2982SOL    HW2 9539   3.963   4.003   1.838
 2983SOL     OW 9540   5.185   5.145   0.953
 2983SOL    HW1 9541   5.121   5.151   1.024
 2983SOL    HW2 9542   5.178   5.056   0.921
 2984SOL     OW 9543   4.321   4.450   0.261
 2984SOL    HW1 9544   4.333   4.528   0.207
 2984SOL    HW2 9545   4.255   4.476   0.326
 2985SOL     OW 9546   5.005   4.073   0.940
 2985SOL    HW1 9547   4.919   4.032   0.931
 2985SOL    HW2 9548   5.056   4.011   0.992
 2986SOL     OW 9549   5.311   5.377   0.306
 2986SOL    HW1 9550   5.385   5.438   0.302
 2986SOL    HW2 9551   5.283   5.367   0.215
 2987SOL     OW 9552   4.514   4.341   1.454
 2987SOL    HW1 9553   4.492   4.324   1.546
 2987SOL    HW2 9554   4.485   4.263   1.408
 2988SOL     OW 9555   5.118   4.196   1.677
 2988SOL    HW1 9556   5.111   4.238   1.762
 2988SOL    HW2 9557   5.186   4.129   1.688
 2989SOL     OW 9558   4.688   4.614   1.578
 2989SOL    HW1 9559   4.740   4.541   1.546
 2989SOL    HW2 9560   4.641   4.645   1.500
 2990SOL     OW 9561   4.771   4.424   0.428
 2990SOL    HW1 9562   4.785   4.418   0.523
 2990SOL    HW2 9563   4.689   4.377   0.413
 2991SOL     OW 9564   3.807   4.540   0.779
 2991SOL    HW1 9565   3.895   4.531   0.816
 2991SOL    HW2 9566   3.775   4.624   0.812
 2992SOL     OW 9567   3.840   0.067   1.573
 2992SOL    HW1 9568   3.841   0.061   1.669
 2992SOL    HW2 9569   3.757   0.111   1.553
 2993SOL     OW 9570   4.592   4.078   0.189
 2993SOL    HW1 9571   4.661   4.125   0.142
 2993SOL    HW2 9572   4.606   3.986   0.167
 2994SOL     OW 9573   5.440   4.306   1.829
 2994SOL    HW1 9574   5.408   4.387   1.789
 2994SOL    HW2 9575   5.449   4.245   1.756
 2995SOL     OW 9576   5.094   4.867   0.543
 2995SOL    HW1 9577   5.171   4.848   0.491
 2995SOL    HW2 9578   5.044   4.930   0.491
 2996SOL     OW 9579   4.271   3.916   0.892
 2996SOL    HW1 9580   4.264   3.932   0.986
 2996SOL    HW2 9581   4.280   4.004   0.853
 2997SOL     OW 9582   4.734   5.183   0.474
 2997SOL    HW1 9583   4.682   5.252   0.432
 2997SOL    HW2 9584   4.720   5.195   0.568
 2998SOL     OW 9585   5.521   4.787   0.867
 2998SOL    HW1 9586   5.458   4.774   0.796
 2998SOL    HW2 9587   5.466   4.793   0.946
 2999SOL     OW 9588   4.953   5.268   1.507
 2999SOL    HW1 9589   4.945   5.195   1.568
 2999SOL    HW2 9590   4.897   5.243   1.433
 3000SOL     OW 9591   4.039   4.675   0.224
 3000SOL    HW1 9592   4.128   4.696   0.196
 3000SOL    HW2 9593   4.029   4.581   0.206
 3001SOL     OW 9594   5.193   4.457   0.727
 3001SOL    HW1 9595   5.181   4.408   0.808
 3001SOL    HW2 9596   5.266   4.515   0.744
 3002SOL     OW 9597   4.187   4.986   1.735
 3002SOL    HW1 9598   4.152   4.993   1.646
 3002SOL    HW2 9599   4.109   4.982   1.791
 3003SOL     OW 9600   3.911   4.019   1.546
 3003SOL    HW1 9601   3.824   4.047   1.516
 3003SOL    HW2 9602   3.893   3.945   1.604
 3004SOL     OW 9603   5.346   5.108   0.098
 3004SOL    HW1 9604   5.311   5.186   0.055
 3004SOL    HW2 9605   5.288   5.037   0.069
 3005SOL     OW 9606   5.125   3.833   0.427
 3005SOL    HW1 9607   5.109   3.804   0.337
 3005SOL    HW2 9608   5.220   3.841   0.434
 3006SOL     OW 9609   4.109   4.421   0.479
 3006SOL    HW1 9610   4.141   4.331   0.482
 3006SOL    HW2 9611   4.017   4.415   0.503
 3007SOL     OW 9612   5.265   3.951   1.725
 3007SOL    HW1 9613   5.270   3.974   1.818
 3007SOL    HW2 9614   5.200   3.882   1.721
 3008SOL     OW 9615   4.339   3.843   0.114
 3008SOL    HW1 9616   4.432   3.821   0.121
 3008SOL    HW2 9617   4.314   3.814   0.026
 3009SOL     OW 9618   4.509   4.009   1.759
 3009SOL    HW1 9619   4.564   3.932   1.773
 3009SOL    HW2 9620   4.434   3.995   1.816
 3010SOL     OW 9621   4.605   5.240   1.184
 3010SOL    HW1 9622   4.587   5.197   1.101
 3010SOL    HW2 9623   4.667   5.181   1.228
 3011SOL     OW 9624   5.067   4.313   1.432
 3011SOL    HW1 9625   5.098   4.277   1.515
 3011SOL    HW2 9626   5.103   4.402   1.430
 3012SOL     OW 9627   4.533   5.125   0.932
 3012SOL    HW1 9628   4.615   5.130   0.884
 3012SOL    HW2 9629   4.466   5.122   0.863
 3013SOL     OW 9630   4.651   4.232   0.900
 3013SOL    HW1 9631   4.627   4.221   0.808
 3013SOL    HW2 9632   4.686   4.147   0.927
 3014SOL     OW 9633   4.271   3.786   0.509
 3014SOL    HW1 9634   4.190   3.788   0.561
 3014SOL    HW2 9635   4.266   3.865   0.456
 3015SOL     OW 9636   5.150   4.920   0.033
 3015SOL    HW1 9637   5.187   4.848   0.084
 3015SOL    HW2 9638   5.065   4.937   0.074
 3016SOL     OW 9639   4.017   3.767   0.181
 3016SOL    HW1 9640   4.075   3.837   0.151
 3016SOL    HW2 9641   4.075   3.700   0.216
 3017SOL     OW 9642   4.658   3.964   0.472
 3017SOL    HW1 9643   4.623   4.005   0.393
 3017SOL    HW2 9644   4.753   3.971   0.463
 3018SOL     OW 9645   4.802   4.402   1.458
 3018SOL    HW1 9646   4.732   4.338   1.471
 3018SOL    HW2 9647   4.882   4.349   1.450
 3019SOL     OW 9648   4.957   5.282   0.788
 3019SOL    HW1 9649   4.962   5.365   0.740
 3019SOL    HW2 9650   5.015   5.294   0.863
 3020SOL     OW 9651   4.187   4.869   0.741
 3020SOL    HW1 9652   4.114   4.852   0.800
 3020SOL    HW2 9653   4.153   4.851   0.654
 3021SOL     OW 9654   4.744   4.268   0.034
 3021SOL    HW1 9655   4.726   4.347  -0.016
 3021SOL    HW2 9656   4.820   4.291   0.088
 3022SOL     OW 9657   3.791   4.287   1.416
 3022SOL    HW1 9658   3.873   4.288   1.366
 3022SOL    HW2 9659   3.799   4.361   1.476
 3023SOL     OW 9660   4.594   4.182   0.640
 3023SOL    HW1 9661   4.552   4.240   0.576
 3023SOL    HW2 9662   4.611   4.102   0.592
 3024SOL     OW 9663   4.739   3.770   0.749
 3024SOL    HW1 9664   4.673   3.763   0.680
 3024SOL    HW2 9665   4.720   3.696   0.807
 3025SOL     OW 9666   5.158   4.890   0.861
 3025SOL    HW1 9667   5.095   4.819   0.856
 3025SOL    HW2 9668   5.178   4.912   0.770
 3026SOL     OW 9669   5.194   4.321   0.987
 3026SOL    HW1 9670   5.155   4.234   0.993
 3026SOL    HW2 9671   5.257   4.324   1.058
 3027SOL     OW 9672   5.576   4.548   0.377
 3027SOL    HW1 9673   5.625   4.490   0.436
 3027SOL    HW2 9674   5.544   4.489   0.309
 3028SOL     OW 9675   4.217   5.118   0.159
 3028SOL    HW1 9676   4.146   5.093   0.219
 3028SOL    HW2 9677   4.172   5.139   0.077
 3029SOL     OW 9678   5.390   4.995   0.656
 3029SOL    HW1 9679   5.484   5.004   0.666
 3029SOL    HW2 9680   5.354   5.081   0.676
 3030SOL     OW 9681   5.108   4.297   0.071
 3030SOL    HW1 9682   5.058   4.276   0.150
 3030SOL    HW2 9683   5.195   4.260   0.087
 3031SOL     OW 9684   4.252   3.985   0.327
 3031SOL    HW1 9685   4.283   3.931   0.254
 3031SOL    HW2 9686   4.241   4.072   0.288
 3032SOL     OW 9687   5.478   4.954   1.582
 3032SOL    HW1 9688   5.566   4.917   1.577
 3032SOL    HW2 9689   5.492   5.044   1.610
 3033SOL     OW 9690   4.789   5.078   1.339
 3033SOL    HW1 9691   4.713   5.045   1.386
 3033SOL    HW2 9692   4.864   5.036   1.380
 3034SOL     OW 9693   5.318   5.342   1.632
 3034SOL    HW1 9694   5.334   5.397   1.555
 3034SOL    HW2 9695   5.405   5.309   1.655
 3035SOL     OW 9696   4.842   4.922   1.107
 3035SOL    HW1 9697   4.788   4.964   1.174
 3035SOL    HW2 9698   4.806   4.955   1.024
 3036SOL     OW 9699   5.359   4.826   1.079
 3036SOL    HW1 9700   5.357   4.892   1.148
 3036SOL    HW2 9701   5.276   4.835   1.033
 3037SOL     OW 9702   4.707   4.838   1.719
 3037SOL    HW1 9703   4.613   4.848   1.735
 3037SOL    HW2 9704   4.714   4.760   1.664
 3038SOL     OW 9705   4.431   4.781   0.372
 3038SOL    HW1 9706   4.420   4.773   0.467
 3038SOL    HW2 9707   4.509   4.728   0.353
 3039SOL     OW 9708   4.140   4.534   1.250
 3039SOL    HW1 9709   4.213   4.552   1.310
 3039SOL    HW2 9710   4.101   4.454   1.284
 3040SOL     OW 9711   3.788   5.292   1.342
 3040SOL    HW1 9712   3.749   5.363   1.292
 3040SOL    HW2 9713   3.882   5.311   1.341
 3041SOL     OW 9714   4.081   4.827   0.496
 3041SOL    HW1 9715   4.086   4.902   0.437
 3041SOL    HW2 9716   4.089   4.751   0.439
 3042SOL     OW 9717   4.291   4.259   0.867
 3042SOL    HW1 9718   4.304   4.319   0.793
 3042SOL    HW2 9719   4.345   4.296   0.937
 3043SOL     OW 9720   4.972   5.071   0.392
 3043SOL    HW1 9721   5.023   5.145   0.424
 3043SOL    HW2 9722   4.883   5.087   0.423
 3044SOL     OW 9723   4.997   5.174   1.146
 3044SOL    HW1 9724   5.047   5.176   1.228
 3044SOL    HW2 9725   4.940   5.098   1.154
 3045SOL     OW 9726   5.309   4.357   0.474
 3045SOL    HW1 9727   5.270   4.416   0.538
 3045SOL    HW2 9728   5.351   4.415   0.410
 3046SOL     OW 9729   4.075   5.235   1.325
 3046SOL    HW1 9730   4.059   5.199   1.237
 3046SOL    HW2 9731   4.168   5.258   1.325
 3047SOL     OW 9732   4.132   4.470   1.596
 3047SOL    HW1 9733   4.199   4.517   1.546
 3047SOL    HW2 9734   4.174   4.387   1.621
 3048SOL     OW 9735   5.315   4.499   1.674
 3048SOL    HW1 9736   5.228   4.539   1.666
 3048SOL    HW2 9737   5.368   4.544   1.608
 3049SOL     OW 9738   4.724   3.832   1.764
 3049SOL    HW1 9739   4.757   3.909   1.718
 3049SOL    HW2 9740   4.775   3.759   1.727
 3050SOL     OW 9741   4.225   3.774   1.743
 3050SOL    HW1 9742   4.187   3.718   1.676
 3050SOL    HW2 9743   4.158   3.840   1.760
 3051SOL     OW 9744   4.300   4.599   1.026
 3051SOL    HW1 9745   4.336   4.687   1.024
 3051SOL    HW2 9746   4.245   4.598   1.104
 3052SOL     OW 9747   5.086   4.585   1.039
 3052SOL    HW1 9748   5.010   4.581   0.982
 3052SOL    HW2 9749   5.118   4.495   1.043
 3053SOL     OW 9750   4.935   4.251   0.274
 3053SOL    HW1 9751   4.940   4.173   0.329
 3053SOL    HW2 9752   4.897   4.318   0.332
 3054SOL     OW 9753   3.767   5.032   1.279
 3054SOL    HW1 9754   3.808   4.986   1.352
 3054SOL    HW2 9755   3.779   5.124   1.299
 3055SOL     OW 9756   4.466   4.383   1.052
 3055SOL    HW1 9757   4.521   4.352   0.980
 3055SOL    HW2 9758   4.430   4.466   1.020
 3056SOL     OW 9759   5.457   4.678   1.851
 3056SOL    HW1 9760   5.406   4.639   1.779
 3056SOL    HW2 9761   5.393   4.692   1.921
 3057SOL     OW 9762   4.026   3.791   0.621
 3057SOL    HW1 9763   4.010   3.880   0.652
 3057SOL    HW2 9764   4.026   3.738   0.701
 3058SOL     OW 9765   5.335   4.093   0.370
 3058SOL    HW1 9766   5.359   4.028   0.437
 3058SOL    HW2 9767   5.308   4.170   0.420
 3059SOL     OW 9768   4.750   4.487   0.964
 3059SOL    HW1 9769   4.755   4.504   1.058
 3059SOL    HW2 9770   4.721   4.396   0.958
 3060SOL     OW 9771   4.705   5.294   1.700
 3060SOL    HW1 9772   4.685   5.332   1.614
 3060SOL    HW2 9773   4.747   5.210   1.681
 3061SOL     OW 9774   5.584   5.238   1.606
 3061SOL    HW1 9775   5.600   5.263   1.515
 3061SOL    HW2 9776   5.663   5.264   1.653
 3062SOL     OW 9777   4.075   4.638   1.803
 3062SOL    HW1 9778   4.156   4.657   1.851
 3062SOL    HW2 9779   4.101   4.577   1.735
 3063SOL     OW 9780   5.265   3.998   0.123
 3063SOL    HW1 9781   5.201   3.931   0.145
 3063SOL    HW2 9782   5.289   4.037   0.207
 3064SOL     OW 9783   5.027   4.555   0.035
 3064SOL    HW1 9784   5.059   4.465   0.043
 3064SOL    HW2 9785   5.043   4.578  -0.056
 3065SOL     OW 9786   4.793   5.055   0.853
 3065SOL    HW1 9787   4.795   4.983   0.791
 3065SOL    HW2 9788   4.852   5.121   0.815
 3066SOL     OW 9789   4.037   4.540   0.956
 3066SOL    HW1 9790   4.130   4.561   0.948
 3066SOL    HW2 9791   4.035   4.446   0.975
 3067SOL     OW 9792   4.041   4.260   0.951
 3067SOL    HW1 9793   4.016   4.172   0.979
 3067SOL    HW2 9794   4.130   4.251   0.919
 3068SOL     OW 9795   4.858   4.110   1.674
 3068SOL    HW1 9796   4.817   4.161   1.743
 3068SOL    HW2 9797   4.949   4.140   1.671
 3069SOL     OW 9798   4.909   3.928   1.486
 3069SOL    HW1 9799   4.882   3.986   1.556
 3069SOL    HW2 9800   4.896   3.979   1.406
 3070SOL     OW 9801   3.728   5.054   0.198
 3070SOL    HW1 9802   3.638   5.065   0.165
 3070SOL    HW2 9803   3.735   4.961   0.218
 3071SOL     OW 9804   4.231   5.289   0.914
 3071SOL    HW1 9805   4.289   5.365   0.908
 3071SOL    HW2 9806   4.271   5.223   0.858
 3072SOL     OW 9807   4.720   4.519   1.231
 3072SOL    HW1 9808   4.764   4.492   1.311
 3072SOL    HW2 9809   4.629   4.492   1.242
 3073SOL     OW 9810   3.917   4.245   1.727
 3073SOL    HW1 9811   3.966   4.199   1.659
 3073SOL    HW2 9812   3.860   4.305   1.679
 3074SOL     OW 9813   5.098   4.669   1.660
 3074SOL    HW1 9814   5.122   4.761   1.667
 3074SOL    HW2 9815   5.099   4.650   1.566
 3075SOL     OW 9816   4.539   4.294   0.344
 3075SOL    HW1 9817   4.541   4.216   0.289
 3075SOL    HW2 9818   4.455   4.336   0.322
 3076SOL     OW 9819   5.369   4.323   1.193
 3076SOL    HW1 9820   5.354   4.265   1.267
 3076SOL    HW2 9821   5.456   4.300   1.161
 3077SOL     OW 9822   3.979   5.282   1.741
 3077SOL    HW1 9823   3.947   5.340   1.809
 3077SOL    HW2 9824   3.968   5.194   1.777
 3078SOL     OW 9825   4.194   4.218   0.198
 3078SOL    HW1 9826   4.250   4.296   0.202
 3078SOL    HW2 9827   4.105   4.253   0.190
 3079SOL     OW 9828   3.875   4.862   1.469
 3079SOL    HW1 9829   3.892   4.806   1.544
 3079SOL    HW2 9830   3.892   4.807   1.393
 3080SOL     OW 9831   5.061   4.776   1.229
 3080SOL    HW1 9832   5.086   4.717   1.159
 3080SOL    HW2 9833   4.983   4.821   1.198
 3081SOL     OW 9834   5.030   4.573   0.311
 3081SOL    HW1 9835   4.946   4.551   0.351
 3081SOL    HW2 9836   5.014   4.569   0.217
 3082SOL     OW 9837   5.479   5.442   1.159
 3082SOL    HW1 9838   5.517   5.485   1.082
 3082SOL    HW2 9839   5.452   5.356   1.127
 3083SOL     OW 9840   4.974   5.442   1.125
 3083SOL    HW1 9841   5.055   5.461   1.079
 3083SOL    HW2 9842   4.975   5.347   1.138
 3084SOL     OW 9843   3.810   4.983   1.019
 3084SOL    HW1 9844   3.796   4.994   1.113
 3084SOL    HW2 9845   3.729   4.942   0.987
 3085SOL     OW 9846   4.630   3.815   0.129
 3085SOL    HW1 9847   4.678   3.801   0.047
 3085SOL    HW2 9848   4.679   3.765   0.194
 3086SOL     OW 9849   5.444   3.861   0.519
 3086SOL    HW1 9850   5.517   3.847   0.458
 3086SOL    HW2 9851   5.426   3.775   0.556
 3087SOL     OW 9852   5.112   5.295   0.480
 3087SOL    HW1 9853   5.181   5.307   0.415
 3087SOL    HW2 9854   5.077   5.383   0.494
 3088SOL     OW 9855   3.839   0.060   1.840
 3088SOL    HW1 9856   3.801  -0.010   1.893
 3088SOL    HW2 9857   3.906   0.099   1.896
 3089SOL     OW 9858   5.002   4.647   0.671
 3089SOL    HW1 9859   5.072   4.582   0.672
 3089SOL    HW2 9860   5.036   4.719   0.619
 3090SOL     OW 9861   4.549   4.995   1.430
 3090SOL    HW1 9862   4.530   5.031   1.516
 3090SOL    HW2 9863   4.471   5.016   1.378
 3091SOL     OW 9864   4.417   5.315   0.148
 3091SOL    HW1 9865   4.382   5.351   0.066
 3091SOL    HW2 9866   4.352   5.250   0.175
 3092SOL     OW 9867   5.563   3.897   0.968
 3092SOL    HW1 9868   5.595   3.814   0.932
 3092SOL    HW2 9869   5.476   3.908   0.930
 3093SOL     OW 9870   3.990   4.046   0.722
 3093SOL    HW1 9871   3.909   4.084   0.686
 3093SOL    HW2 9872   3.970   4.029   0.814
 3094SOL     OW 9873   4.885   5.340   0.059
 3094SOL    HW1 9874   4.909   5.250   0.080
 3094SOL    HW2 9875   4.888   5.345  -0.037
 3095SOL     OW 9876   4.549   4.728   1.371
 3095SOL    HW1 9877   4.588   4.729   1.284
 3095SOL    HW2 9878   4.553   4.820   1.400
 3096SOL     OW 9879   4.640   4.634   0.290
 3096SOL    HW1 9880   4.702   4.669   0.225
 3096SOL    HW2 9881   4.685   4.560   0.329
 3097SOL     OW 9882   4.094   5.018   1.491
 3097SOL    HW1 9883   4.081   5.101   1.445
 3097SOL    HW2 9884   4.015   4.968   1.474
 3098SOL     OW 9885   5.334   5.009   1.286
 3098SOL    HW1 9886   5.396   5.010   1.359
 3098SOL    HW2 9887   5.274   5.080   1.304
 3099SOL     OW 9888   4.766   4.825   0.701
 3099SOL    HW1 9889   4.698   4.774   0.744
 3099SOL    HW2 9890   4.824   4.760   0.662
 3100SOL     OW 9891   4.750   3.965   0.930
 3100SOL    HW1 9892   4.737   3.906   0.856
 3100SOL    HW2 9893   4.734   3.910   1.007
 3101SOL     OW 9894   4.312   5.203   0.486
 3101SOL    HW1 9895   4.358   5.163   0.413
 3101SOL    HW2 9896   4.282   5.287   0.453
 3102SOL     OW 9897   5.437   4.112   1.380
 3102SOL    HW1 9898   5.508   4.177   1.380
 3102SOL    HW2 9899   5.470   4.042   1.323
 3103SOL     OW 9900   3.983   5.075   0.286
 3103SOL    HW1 9901   3.891   5.068   0.262
 3103SOL    HW2 9902   3.982   5.113   0.375
 3104SOL     OW 9903   3.833   4.737   1.722
 3104SOL    HW1 9904   3.758   4.712   1.776
 3104SOL    HW2 9905   3.909   4.704   1.769
 3105SOL     OW 9906   3.792   4.067   0.038
 3105SOL    HW1 9907   3.702   4.048   0.010
 3105SOL    HW2 9908   3.817   4.145  -0.013
 3106SOL     OW 9909   5.160   4.582   1.402
 3106SOL    HW1 9910   5.111   4.637   1.341
 3106SOL    HW2 9911   5.251   4.589   1.373
 3107SOL     OW 9912   3.796   3.886   0.317
 3107SOL    HW1 9913   3.782   3.965   0.265
 3107SOL    HW2 9914   3.882   3.853   0.288
 3108SOL     OW 9915   4.910   5.072   0.119
 3108SOL    HW1 9916   4.818   5.045   0.116
 3108SOL    HW2 9917   4.935   5.063   0.211
 3109SOL     OW 9918   4.339   4.559   1.429
 3109SOL    HW1 9919   4.394   4.637   1.417
 3109SOL    HW2 9920   4.402   4.488   1.440
 3110SOL     OW 9921   4.445   4.290   1.705
 3110SOL    HW1 9922   4.468   4.350   1.776
 3110SOL    HW2 9923   4.486   4.207   1.729
 3111SOL     OW 9924   5.184   4.933   1.634
 3111SOL    HW1 9925   5.175   4.942   1.729
 3111SOL    HW2 9926   5.278   4.940   1.618
 3112SOL     OW 9927   5.399   4.607   1.255
 3112SOL    HW1 9928   5.382   4.522   1.214
 3112SOL    HW2 9929   5.393   4.670   1.184
 3113SOL     OW 9930   4.946   4.045   0.454
 3113SOL    HW1 9931   5.011   3.975   0.445
 3113SOL    HW2 9932   4.972   4.092   0.534
 3114SOL     OW 9933   4.317   4.468   0.661
 3114SOL    HW1 9934   4.359   4.551   0.642
 3114SOL    HW2 9935   4.241   4.465   0.602
 3115SOL     OW 9936   5.495   4.077   1.645
 3115SOL    HW1 9937   5.475   4.092   1.553
 3115SOL    HW2 9938   5.422   4.025   1.678
 3116SOL     OW 9939   5.461   4.657   1.514
 3116SOL    HW1 9940   5.481   4.750   1.526
 3116SOL    HW2 9941   5.449   4.647   1.420
 3117SOL     OW 9942   4.627   5.098   0.039
 3117SOL    HW1 9943   4.558   5.102   0.106
 3117SOL    HW2 9944   4.625   5.184  -0.003
 3118SOL     OW 9945   4.585   4.683   0.859
 3118SOL    HW1 9946   4.639   4.618   0.903
 3118SOL    HW2 9947   4.558   4.743   0.928
 3119SOL     OW 9948   4.821   4.726   0.100
 3119SOL    HW1 9949   4.771   4.738   0.019
 3119SOL    HW2 9950   4.889   4.663   0.077
 3120SOL     OW 9951   5.585   5.296   0.847
 3120SOL    HW1 9952   5.509   5.280   0.791
 3120SOL    HW2 9953   5.581   5.226   0.912
 3121SOL     OW 9954   3.947   5.032   1.852
 3121SOL    HW1 9955   3.879   4.969   1.829
 3121SOL    HW2 9956   3.937   5.045   1.946
 3122SOL     OW 9957   3.808   4.964   0.659
 3122SOL    HW1 9958   3.807   4.914   0.740
 3122SOL    HW2 9959   3.880   4.926   0.608
 3123SOL     OW 9960   4.400   5.121   1.621
 3123SOL    HW1 9961   4.324   5.074   1.654
 3123SOL    HW2 9962   4.391   5.210   1.655
 3124SOL     OW 9963   5.537   3.913   1.235
 3124SOL    HW1 9964   5.550   3.822   1.261
 3124SOL    HW2 9965   5.550   3.913   1.140
 3125SOL     OW 9966   4.154   4.155   0.522
 3125SOL    HW1 9967   4.180   4.083   0.465
 3125SOL    HW2 9968   4.111   4.112   0.596
 3126SOL     OW 9969   5.429   5.196   1.094
 3126SOL    HW1 9970   5.340   5.174   1.067
 3126SOL    HW2 9971   5.445   5.144   1.172
 3127SOL     OW 9972   4.551   5.283   0.686
 3127SOL    HW1 9973   4.549   5.340   0.609
 3127SOL    HW2 9974   4.464   5.244   0.690
 3128SOL     OW 9975   5.166   3.947   1.114
 3128SOL    HW1 9976   5.209   3.877   1.163
 3128SOL    HW2 9977   5.124   4.001   1.181
 3129SOL     OW 9978   4.493   5.053   0.305
 3129SOL    HW1 9979   4.456   4.965   0.318
 3129SOL    HW2 9980   4.579   5.050   0.346
 3130SOL     OW 9981   4.344   5.293   1.284
 3130SOL    HW1 9982   4.351   5.370   1.342
 3130SOL    HW2 9983   4.431   5.284   1.246
 3131SOL     OW 9984   5.076   3.776   0.167
 3131SOL    HW1 9985   5.102   3.733   0.085
 3131SOL    HW2 9986   4.990   3.739   0.187
 3132SOL     OW 9987   5.023   4.181   0.688
 3132SOL    HW1 9988   4.967   4.258   0.695
 3132SOL    HW2 9989   5.025   4.144   0.776
 3133SOL     OW 9990   5.315   3.936   0.877
 3133SOL    HW1 9991   5.242   3.948   0.938
 3133SOL    HW2 9992   5.315   4.015   0.824
 3134SOL     OW 9993   3.764   4.800   0.303
 3134SOL    HW1 9994   3.859   4.792   0.296
 3134SOL    HW2 9995   3.735   4.714   0.333
 3135SOL     OW 9996   3.954   4.353   1.979
 3135SOL    HW1 9997   3.865   4.348   2.012
 3135SOL    HW2 9998   3.950   4.317   1.891
 3136SOL     OW 9999   3.948   4.000   2.852
 3136SOL    HW110000   3.978   3.975   2.940
 3136SOL    HW210001   3.860   3.964   2.846
 3137SOL     OW10002   3.734   4.103   2.500
 3137SOL    HW110003   3.652   4.126   2.544
 3137SOL    HW210004   3.713   4.023   2.452
 3138SOL     OW10005   4.291   5.000   3.030
 3138SOL    HW110006   4.203   5.000   2.992
 3138SOL    HW210007   4.302   5.087   3.067
 3139SOL     OW10008   5.281   5.239   2.564
 3139SOL    HW110009   5.230   5.222   2.643
 3139SOL    HW210010   5.216   5.248   2.495
 3140SOL     OW10011   4.854   4.425   2.572
 3140SOL    HW110012   4.907   4.503   2.555
 3140SOL    HW210013   4.805   4.445   2.652
 3141SOL     OW10014   5.484   4.332   2.095
 3141SOL    HW110015   5.467   4.320   2.001
 3141SOL    HW210016   5.451   4.252   2.136
 3142SOL     OW10017   4.489   4.870   2.894
 3142SOL    HW110018   4.416   4.898   2.948
 3142SOL    HW210019   4.519   4.949   2.850
 3143SOL     OW10020   4.411   4.737   2.517
 3143SOL    HW110021   4.473   4.718   2.588
 3143SOL    HW210022   4.340   4.785   2.560
 3144SOL     OW10023   4.056   5.156   2.930
 3144SOL    HW110024   3.984   5.125   2.875
 3144SOL    HW210025   4.110   5.208   2.872
 3145SOL     OW10026   5.191   5.226   3.206
 3145SOL    HW110027   5.202   5.320   3.223
 3145SOL    HW210028   5.155   5.190   3.287
 3146SOL     OW10029   4.168   4.121   3.352
 3146SOL    HW110030   4.242   4.060   3.360
 3146SOL    HW210031   4.090   4.066   3.364
 3147SOL     OW10032   5.335   4.174   2.598
 3147SOL    HW110033   5.260   4.209   2.551
 3147SOL    HW210034   5.366   4.248   2.651
 3148SOL     OW10035   3.945   5.165   2.391
 3148SOL    HW110036   3.931   5.256   2.417
 3148SOL    HW210037   3.890   5.115   2.450
 3149SOL     OW10038   3.971   4.814   2.749
 3149SOL    HW110039   3.973   4.731   2.797
 3149SOL    HW210040   3.915   4.871   2.802
 3150SOL     OW10041   4.319   4.698   1.990
 3150SOL    HW110042   4.351   4.762   1.927
 3150SOL    HW210043   4.366   4.718   2.071
 3151SOL     OW10044   5.318   3.841   3.343
 3151SOL    HW110045   5.309   3.912   3.279
 3151SOL    HW210046   5.313   3.884   3.428
 3152SOL     OW10047   3.841   4.371   2.423
 3152SOL    HW110048   3.808   4.283   2.442
 3152SOL    HW210049   3.832   4.419   2.506
 3153SOL     OW10050   3.742   5.318   1.982
 3153SOL    HW110051   3.736   5.225   2.005
 3153SOL    HW210052   3.728   5.364   2.064
 3154SOL     OW10053   5.414   4.644   2.490
 3154SOL    HW110054   5.503   4.611   2.480
 3154SOL    HW210055   5.399   4.696   2.411
 3155SOL     OW10056   5.368   4.833   2.293
 3155SOL    HW110057   5.452   4.843   2.248
 3155SOL    HW210058   5.375   4.890   2.369
 3156SOL     OW10059   3.842   4.460   3.449
 3156SOL    HW110060   3.931   4.471   3.481
 3156SOL    HW210061   3.807   4.549   3.444
 3157SOL     OW10062   4.333   5.099   2.596
 3157SOL    HW110063   4.288   5.015   2.602
 3157SOL    HW210064   4.317   5.129   2.506
 3158SOL     OW10065   5.023   4.962   3.296
 3158SOL    HW110066   5.051   4.894   3.234
 3158SOL    HW210067   5.073   4.943   3.376
 3159SOL     OW10068   4.532   3.723   2.363
 3159SOL    HW110069   4.573   3.809   2.355
 3159SOL    HW210070   4.439   3.741   2.376
 3160SOL     OW10071   3.919   4.698   3.125
 3160SOL    HW110072   4.002   4.651   3.112
 3160SOL    HW210073   3.852   4.635   3.100
 3161SOL     OW10074   5.256   4.716   2.054
 3161SOL    HW110075   5.187   4.653   2.077
 3161SOL    HW210076   5.292   4.744   2.138
 3162SOL     OW10077   5.185   5.145   2.815
 3162SOL    HW110078   5.121   5.151   2.886
 3162SOL    HW210079   5.178   5.056   2.783
 3163SOL     OW10080   4.319   4.449   2.126
 3163SOL    HW110081   4.335   4.525   2.070
 3163SOL    HW210082   4.252   4.479   2.188
 3164SOL     OW10083   5.006   4.068   2.796
 3164SOL    HW110084   4.918   4.030   2.799
 3164SOL    HW210085   5.056   4.017   2.859
 3165SOL     OW10086   5.312   5.376   2.169
 3165SOL    HW110087   5.387   5.436   2.166
 3165SOL    HW210088   5.283   5.370   2.078
 3166SOL     OW10089   4.526   4.334   3.318
 3166SOL    HW110090   4.491   4.321   3.405
 3166SOL    HW210091   4.475   4.275   3.262
 3167SOL     OW10092   4.693   4.619   3.432
 3167SOL    HW110093   4.738   4.542   3.397
 3167SOL    HW210094   4.637   4.649   3.360
 3168SOL     OW10095   4.715   4.135   3.105
 3168SOL    HW110096   4.635   4.164   3.147
 3168SOL    HW210097   4.686   4.088   3.027
 3169SOL     OW10098   4.771   4.424   2.290
 3169SOL    HW110099   4.785   4.417   2.385
 3169SOL    HW210100   4.689   4.376   2.275
 3170SOL     OW10101   3.810   4.542   2.637
 3170SOL    HW110102   3.895   4.531   2.679
 3170SOL    HW210103   3.774   4.622   2.675
 3171SOL     OW10104   3.844   0.064   3.444
 3171SOL    HW110105   3.830   0.062   3.539
 3171SOL    HW210106   3.765   0.103   3.409
 3172SOL     OW10107   4.601   4.069   2.059
 3172SOL    HW110108   4.649   4.128   2.001
 3172SOL    HW210109   4.616   3.982   2.022
 3173SOL     OW10110   5.094   4.867   2.405
 3173SOL    HW110111   5.172   4.848   2.353
 3173SOL    HW210112   5.044   4.930   2.353
 3174SOL     OW10113   4.272   3.913   2.751
 3174SOL    HW110114   4.273   3.931   2.845
 3174SOL    HW210115   4.276   4.000   2.711
 3175SOL     OW10116   4.733   5.182   2.335
 3175SOL    HW110117   4.683   5.253   2.294
 3175SOL    HW210118   4.720   5.195   2.429
 3176SOL     OW10119   5.521   4.788   2.729
 3176SOL    HW110120   5.458   4.773   2.658
 3176SOL    HW210121   5.467   4.793   2.807
 3177SOL     OW10122   4.949   5.265   3.357
 3177SOL    HW110123   4.956   5.186   3.412
 3177SOL    HW210124   4.893   5.238   3.284
 3178SOL     OW10125   4.044   4.676   2.104
 3178SOL    HW110126   4.128   4.697   2.063
 3178SOL    HW210127   4.018   4.593   2.064
 3179SOL     OW10128   5.192   4.458   2.589
 3179SOL    HW110129   5.181   4.407   2.669
 3179SOL    HW210130   5.267   4.515   2.607
 3180SOL     OW10131   3.927   4.002   3.352
 3180SOL    HW110132   3.852   4.058   3.335
 3180SOL    HW210133   3.908   3.961   3.436
 3181SOL     OW10134   5.352   5.104   1.952
 3181SOL    HW110135   5.318   5.186   1.917
 3181SOL    HW210136   5.285   5.039   1.931
 3182SOL     OW10137   5.125   3.833   2.289
 3182SOL    HW110138   5.108   3.803   2.200
 3182SOL    HW210139   5.220   3.840   2.295
 3183SOL     OW10140   4.110   4.421   2.342
 3183SOL    HW110141   4.141   4.331   2.345
 3183SOL    HW210142   4.017   4.415   2.365
 3184SOL     OW10143   4.345   3.850   1.973
 3184SOL    HW110144   4.430   3.808   1.980
 3184SOL    HW210145   4.308   3.818   1.891
 3185SOL     OW10146   4.606   5.240   3.046
 3185SOL    HW110147   4.586   5.197   2.963
 3185SOL    HW210148   4.666   5.181   3.090
 3186SOL     OW10149   5.066   4.313   3.302
 3186SOL    HW110150   5.107   4.283   3.383
 3186SOL    HW210151   5.102   4.400   3.288
 3187SOL     OW10152   4.533   5.125   2.794
 3187SOL    HW110153   4.615   5.130   2.746
 3187SOL    HW210154   4.466   5.122   2.726
 3188SOL     OW10155   4.649   4.231   2.765
 3188SOL    HW110156   4.625   4.221   2.673
 3188SOL    HW210157   4.687   4.147   2.790
 3189SOL     OW10158   4.270   3.787   2.372
 3189SOL    HW110159   4.189   3.789   2.423
 3189SOL    HW210160   4.267   3.865   2.317
 3190SOL     OW10161   5.154   4.919   1.902
 3190SOL    HW110162   5.186   4.845   1.954
 3190SOL    HW210163   5.067   4.938   1.938
 3191SOL     OW10164   4.018   3.765   2.041
 3191SOL    HW110165   4.073   3.836   2.008
 3191SOL    HW210166   4.080   3.704   2.080
 3192SOL     OW10167   4.658   3.964   2.334
 3192SOL    HW110168   4.623   4.006   2.255
 3192SOL    HW210169   4.753   3.969   2.325
 3193SOL     OW10170   4.803   4.402   3.323
 3193SOL    HW110171   4.730   4.339   3.321
 3193SOL    HW210172   4.881   4.349   3.309
 3194SOL     OW10173   4.958   5.282   2.649
 3194SOL    HW110174   4.961   5.366   2.602
 3194SOL    HW210175   5.015   5.294   2.724
 3195SOL     OW10176   4.188   4.869   2.603
 3195SOL    HW110177   4.114   4.852   2.662
 3195SOL    HW210178   4.153   4.850   2.516
 3196SOL     OW10179   4.757   4.273   1.876
 3196SOL    HW110180   4.713   4.356   1.853
 3196SOL    HW210181   4.814   4.296   1.949
 3197SOL     OW10182   3.800   4.276   3.254
 3197SOL    HW110183   3.889   4.278   3.220
 3197SOL    HW210184   3.796   4.349   3.316
 3198SOL     OW10185   4.289   3.950   3.021
 3198SOL    HW110186   4.320   3.865   3.052
 3198SOL    HW210187   4.198   3.954   3.050
 3199SOL     OW10188   4.594   4.182   2.503
 3199SOL    HW110189   4.551   4.240   2.440
 3199SOL    HW210190   4.612   4.102   2.454
 3200SOL     OW10191   4.737   3.774   2.618
 3200SOL    HW110192   4.677   3.766   2.545
 3200SOL    HW210193   4.719   3.698   2.673
 3201SOL     OW10194   5.158   4.891   2.723
 3201SOL    HW110195   5.095   4.818   2.719
 3201SOL    HW210196   5.178   4.911   2.632
 3202SOL     OW10197   5.194   4.320   2.849
 3202SOL    HW110198   5.154   4.233   2.856
 3202SOL    HW210199   5.258   4.323   2.920
 3203SOL     OW10200   5.573   4.549   2.242
 3203SOL    HW110201   5.625   4.492   2.298
 3203SOL    HW210202   5.544   4.491   2.171
 3204SOL     OW10203   4.216   5.128   2.029
 3204SOL    HW110204   4.140   5.098   2.079
 3204SOL    HW210205   4.188   5.124   1.937
 3205SOL     OW10206   5.390   4.995   2.517
 3205SOL    HW110207   5.484   5.004   2.528
 3205SOL    HW210208   5.355   5.081   2.538
 3206SOL     OW10209   5.116   4.297   1.935
 3206SOL    HW110210   5.060   4.278   2.010
 3206SOL    HW210211   5.202   4.261   1.958
 3207SOL     OW10212   4.251   3.985   2.188
 3207SOL    HW110213   4.283   3.931   2.115
 3207SOL    HW210214   4.242   4.072   2.151
 3208SOL     OW10215   5.485   4.945   3.434
 3208SOL    HW110216   5.577   4.918   3.433
 3208SOL    HW210217   5.487   5.034   3.470
 3209SOL     OW10218   4.792   5.078   3.203
 3209SOL    HW110219   4.714   5.045   3.247
 3209SOL    HW210220   4.865   5.032   3.244
 3210SOL     OW10221   5.323   5.343   3.500
 3210SOL    HW110222   5.328   5.398   3.422
 3210SOL    HW210223   5.412   5.310   3.512
 3211SOL     OW10224   4.843   4.924   2.969
 3211SOL    HW110225   4.786   4.963   3.036
 3211SOL    HW210226   4.806   4.954   2.886
 3212SOL     OW10227   5.360   4.826   2.940
 3212SOL    HW110228   5.357   4.891   3.010
 3212SOL    HW210229   5.276   4.835   2.895
 3213SOL     OW10230   4.641   3.822   3.268
 3213SOL    HW110231   4.660   3.799   3.177
 3213SOL    HW210232   4.721   3.865   3.299
 3214SOL     OW10233   4.430   4.781   2.234
 3214SOL    HW110234   4.418   4.773   2.328
 3214SOL    HW210235   4.508   4.728   2.215
 3215SOL     OW10236   4.138   4.536   3.112
 3215SOL    HW110237   4.209   4.547   3.175
 3215SOL    HW210238   4.100   4.451   3.134
 3216SOL     OW10239   4.995   4.105   3.131
 3216SOL    HW110240   5.022   4.183   3.180
 3216SOL    HW210241   4.909   4.127   3.096
 3217SOL     OW10242   3.791   5.297   3.202
 3217SOL    HW110243   3.752   5.365   3.146
 3217SOL    HW210244   3.885   5.311   3.194
 3218SOL     OW10245   4.083   4.826   2.358
 3218SOL    HW110246   4.086   4.901   2.299
 3218SOL    HW210247   4.087   4.750   2.301
 3219SOL     OW10248   4.285   4.262   2.725
 3219SOL    HW110249   4.302   4.322   2.653
 3219SOL    HW210250   4.339   4.295   2.797
 3220SOL     OW10251   4.972   5.072   2.251
 3220SOL    HW110252   5.023   5.145   2.286
 3220SOL    HW210253   4.884   5.087   2.285
 3221SOL     OW10254   4.997   5.174   3.007
 3221SOL    HW110255   5.047   5.175   3.089
 3221SOL    HW210256   4.941   5.097   3.014
 3222SOL     OW10257   5.307   4.356   2.336
 3222SOL    HW110258   5.271   4.417   2.400
 3222SOL    HW210259   5.353   4.412   2.273
 3223SOL     OW10260   4.074   5.234   3.188
 3223SOL    HW110261   4.059   5.198   3.100
 3223SOL    HW210262   4.166   5.258   3.188
 3224SOL     OW10263   4.126   4.473   3.463
 3224SOL    HW110264   4.190   4.524   3.414
 3224SOL    HW210265   4.172   4.391   3.484
 3225SOL     OW10266   5.315   4.491   3.526
 3225SOL    HW110267   5.237   4.545   3.537
 3225SOL    HW210268   5.376   4.546   3.476
 3226SOL     OW10269   4.304   4.594   2.893
 3226SOL    HW110270   4.335   4.684   2.886
 3226SOL    HW210271   4.244   4.595   2.968
 3227SOL     OW10272   5.086   4.585   2.902
 3227SOL    HW110273   5.009   4.581   2.845
 3227SOL    HW210274   5.119   4.495   2.906
 3228SOL     OW10275   4.936   4.253   2.135
 3228SOL    HW110276   4.941   4.173   2.187
 3228SOL    HW210277   4.896   4.318   2.194
 3229SOL     OW10278   4.030   3.930   3.102
 3229SOL    HW110279   3.997   3.963   3.186
 3229SOL    HW210280   4.004   3.838   3.101
 3230SOL     OW10281   3.769   5.033   3.140
 3230SOL    HW110282   3.807   4.985   3.214
 3230SOL    HW210283   3.780   5.125   3.163
 3231SOL     OW10284   4.455   4.358   2.926
 3231SOL    HW110285   4.519   4.337   2.858
 3231SOL    HW210286   4.425   4.447   2.904
 3232SOL     OW10287   4.026   3.791   2.484
 3232SOL    HW110288   4.012   3.881   2.514
 3232SOL    HW210289   4.026   3.739   2.564
 3233SOL     OW10290   5.335   4.092   2.232
 3233SOL    HW110291   5.359   4.028   2.299
 3233SOL    HW210292   5.308   4.170   2.282
 3234SOL     OW10293   4.749   4.487   2.827
 3234SOL    HW110294   4.756   4.504   2.921
 3234SOL    HW210295   4.722   4.395   2.821
 3235SOL     OW10296   5.578   5.224   3.446
 3235SOL    HW110297   5.604   5.255   3.359
 3235SOL    HW210298   5.641   5.263   3.506
 3236SOL     OW10299   5.257   4.000   1.988
 3236SOL    HW110300   5.198   3.930   2.015
 3236SOL    HW210301   5.289   4.038   2.070
 3237SOL     OW10302   5.023   4.555   1.900
 3237SOL    HW110303   5.063   4.468   1.905
 3237SOL    HW210304   5.050   4.588   1.814
 3238SOL     OW10305   4.793   5.055   2.715
 3238SOL    HW110306   4.795   4.983   2.653
 3238SOL    HW210307   4.852   5.121   2.677
 3239SOL     OW10308   4.038   4.536   2.812
 3239SOL    HW110309   4.131   4.559   2.809
 3239SOL    HW210310   4.036   4.450   2.853
 3240SOL     OW10311   4.061   4.240   2.870
 3240SOL    HW110312   4.020   4.155   2.852
 3240SOL    HW210313   4.135   4.244   2.810
 3241SOL     OW10314   4.873   3.939   3.339
 3241SOL    HW110315   4.893   4.000   3.410
 3241SOL    HW210316   4.914   3.978   3.262
 3242SOL     OW10317   3.729   5.049   2.058
 3242SOL    HW110318   3.640   5.061   2.025
 3242SOL    HW210319   3.732   4.958   2.086
 3243SOL     OW10320   4.230   5.290   2.775
 3243SOL    HW110321   4.290   5.365   2.770
 3243SOL    HW210322   4.271   5.223   2.720
 3244SOL     OW10323   4.720   4.521   3.093
 3244SOL    HW110324   4.764   4.492   3.173
 3244SOL    HW210325   4.630   4.489   3.103
 3245SOL     OW10326   3.761   4.266   2.978
 3245SOL    HW110327   3.844   4.243   2.936
 3245SOL    HW210328   3.784   4.277   3.070
 3246SOL     OW10329   4.539   4.293   2.206
 3246SOL    HW110330   4.542   4.215   2.150
 3246SOL    HW210331   4.458   4.338   2.180
 3247SOL     OW10332   5.369   4.324   3.056
 3247SOL    HW110333   5.354   4.263   3.129
 3247SOL    HW210334   5.455   4.300   3.023
 3248SOL     OW10335   4.002   5.266   0.050
 3248SOL    HW110336   3.954   5.334   0.097
 3248SOL    HW210337   3.966   5.184   0.083
 3249SOL     OW10338   4.410   4.181   3.129
 3249SOL    HW110339   4.364   4.105   3.095
 3249SOL    HW210340   4.415   4.241   3.054
 3250SOL     OW10341   4.196   4.220   2.052
 3250SOL    HW110342   4.251   4.297   2.067
 3250SOL    HW210343   4.106   4.254   2.050
 3251SOL     OW10344   3.880   4.863   3.330
 3251SOL    HW110345   3.891   4.803   3.404
 3251SOL    HW210346   3.893   4.807   3.253
 3252SOL     OW10347   5.060   4.778   3.093
 3252SOL    HW110348   5.087   4.718   3.024
 3252SOL    HW210349   4.982   4.821   3.059
 3253SOL     OW10350   5.029   4.579   2.171
 3253SOL    HW110351   4.948   4.550   2.214
 3253SOL    HW210352   5.012   4.567   2.078
 3254SOL     OW10353   5.479   5.442   3.021
 3254SOL    HW110354   5.516   5.486   2.945
 3254SOL    HW210355   5.452   5.356   2.990
 3255SOL     OW10356   4.974   5.442   2.989
 3255SOL    HW110357   5.054   5.462   2.941
 3255SOL    HW210358   4.975   5.346   2.999
 3256SOL     OW10359   3.809   4.985   2.880
 3256SOL    HW110360   3.797   4.993   2.974
 3256SOL    HW210361   3.730   4.940   2.849
 3257SOL     OW10362   5.444   3.861   2.380
 3257SOL    HW110363   5.517   3.847   2.321
 3257SOL    HW210364   5.426   3.775   2.418
 3258SOL     OW10365   5.112   5.295   2.341
 3258SOL    HW110366   5.182   5.308   2.278
 3258SOL    HW210367   5.077   5.382   2.357
 3259SOL     OW10368   5.001   4.647   2.533
 3259SOL    HW110369   5.072   4.582   2.535
 3259SOL    HW210370   5.036   4.719   2.481
 3260SOL     OW10371   4.550   4.995   3.290
 3260SOL    HW110372   4.536   5.026   3.380
 3260SOL    HW210373   4.469   5.017   3.244
 3261SOL     OW10374   4.408   5.328   2.012
 3261SOL    HW110375   4.395   5.336   1.918
 3261SOL    HW210376   4.356   5.251   2.037
 3262SOL     OW10377   5.564   3.897   2.830
 3262SOL    HW110378   5.594   3.813   2.795
 3262SOL    HW210379   5.476   3.908   2.793
 3263SOL     OW10380   3.992   4.046   2.583
 3263SOL    HW110381   3.909   4.083   2.553
 3263SOL    HW210382   3.980   4.034   2.677
 3264SOL     OW10383   4.922   5.330   1.891
 3264SOL    HW110384   4.919   5.240   1.923
 3264SOL    HW210385   4.855   5.333   1.822
 3265SOL     OW10386   4.546   4.729   3.231
 3265SOL    HW110387   4.588   4.729   3.145
 3265SOL    HW210388   4.552   4.820   3.261
 3266SOL     OW10389   4.640   4.634   2.151
 3266SOL    HW110390   4.703   4.666   2.086
 3266SOL    HW210391   4.682   4.559   2.192
 3267SOL     OW10392   4.096   5.022   3.368
 3267SOL    HW110393   4.086   5.099   3.312
 3267SOL    HW210394   4.022   4.966   3.346
 3268SOL     OW10395   5.336   5.008   3.147
 3268SOL    HW110396   5.395   5.005   3.223
 3268SOL    HW210397   5.276   5.081   3.166
 3269SOL     OW10398   4.766   4.825   2.563
 3269SOL    HW110399   4.698   4.775   2.606
 3269SOL    HW210400   4.824   4.759   2.525
 3270SOL     OW10401   4.742   3.962   2.828
 3270SOL    HW110402   4.733   3.917   2.745
 3270SOL    HW210403   4.736   3.893   2.894
 3271SOL     OW10404   4.312   5.203   2.348
 3271SOL    HW110405   4.357   5.163   2.274
 3271SOL    HW210406   4.281   5.288   2.315
 3272SOL     OW10407   5.434   4.111   3.242
 3272SOL    HW110408   5.505   4.174   3.248
 3272SOL    HW210409   5.469   4.041   3.186
 3273SOL     OW10410   3.980   5.075   2.146
 3273SOL    HW110411   3.886   5.071   2.128
 3273SOL    HW210412   3.986   5.112   2.234
 3274SOL     OW10413   3.838   4.724   0.026
 3274SOL    HW110414   3.759   4.715   0.080
 3274SOL    HW210415   3.911   4.714   0.087
 3275SOL     OW10416   4.394   3.917   3.361
 3275SOL    HW110417   4.477   3.906   3.314
 3275SOL    HW210418   4.419   3.947   3.448
 3276SOL     OW10419   3.798   4.068   1.898
 3276SOL    HW110420   3.712   4.043   1.864
 3276SOL    HW210421   3.826   4.140   1.842
 3277SOL     OW10422   5.157   4.575   3.263
 3277SOL    HW110423   5.110   4.637   3.207
 3277SOL    HW210424   5.249   4.587   3.240
 3278SOL     OW10425   3.797   3.887   2.179
 3278SOL    HW110426   3.782   3.965   2.126
 3278SOL    HW210427   3.883   3.855   2.150
 3279SOL     OW10428   4.905   5.066   1.980
 3279SOL    HW110429   4.814   5.040   1.985
 3279SOL    HW210430   4.936   5.066   2.070
 3280SOL     OW10431   4.339   4.560   3.292
 3280SOL    HW110432   4.395   4.637   3.278
 3280SOL    HW210433   4.400   4.487   3.300
 3281SOL     OW10434   4.446   4.293   0.018
 3281SOL    HW110435   4.455   4.352   0.093
 3281SOL    HW210436   4.493   4.214   0.043
 3282SOL     OW10437   4.117   5.463   3.429
 3282SOL    HW110438   4.030   5.500   3.417
 3282SOL    HW210439   4.102   5.373   3.458
 3283SOL     OW10440   5.398   4.607   3.118
 3283SOL    HW110441   5.382   4.522   3.077
 3283SOL    HW210442   5.393   4.670   3.046
 3284SOL     OW10443   4.947   4.046   2.316
 3284SOL    HW110444   5.010   3.975   2.307
 3284SOL    HW210445   4.973   4.092   2.396
 3285SOL     OW10446   4.317   4.468   2.523
 3285SOL    HW110447   4.359   4.552   2.504
 3285SOL    HW210448   4.241   4.465   2.465
 3286SOL     OW10449   5.468   4.658   3.376
 3286SOL    HW110450   5.474   4.752   3.390
 3286SOL    HW210451   5.450   4.648   3.282
 3287SOL     OW10452   4.581   5.097   1.883
 3287SOL    HW110453   4.544   5.116   1.969
 3287SOL    HW210454   4.615   5.181   1.852
 3288SOL     OW10455   4.587   4.685   2.720
 3288SOL    HW110456   4.638   4.617   2.765
 3288SOL    HW210457   4.557   4.743   2.790
 3289SOL     OW10458   4.804   4.710   1.950
 3289SOL    HW110459   4.785   4.760   1.870
 3289SOL    HW210460   4.882   4.658   1.928
 3290SOL     OW10461   5.584   5.296   2.709
 3290SOL    HW110462   5.509   5.280   2.653
 3290SOL    HW210463   5.581   5.226   2.774
 3291SOL     OW10464   3.808   4.964   2.521
 3291SOL    HW110465   3.805   4.914   2.602
 3291SOL    HW210466   3.880   4.924   2.471
 3292SOL     OW10467   4.371   5.122   3.464
 3292SOL    HW110468   4.315   5.063   3.513
 3292SOL    HW210469   4.385   5.198   3.521
 3293SOL     OW10470   5.542   3.912   3.098
 3293SOL    HW110471   5.547   3.819   3.120
 3293SOL    HW210472   5.550   3.914   3.003
 3294SOL     OW10473   4.154   4.154   2.384
 3294SOL    HW110474   4.180   4.082   2.327
 3294SOL    HW210475   4.111   4.113   2.458
 3295SOL     OW10476   5.429   5.197   2.956
 3295SOL    HW110477   5.340   5.173   2.929
 3295SOL    HW210478   5.445   5.143   3.034
 3296SOL     OW10479   4.046   4.273   3.148
 3296SOL    HW110480   4.097   4.217   3.208
 3296SOL    HW210481   4.075   4.247   3.061
 3297SOL     OW10482   4.551   5.283   2.548
 3297SOL    HW110483   4.549   5.340   2.471
 3297SOL    HW210484   4.464   5.244   2.552
 3298SOL     OW10485   5.154   3.944   2.979
 3298SOL    HW110486   5.192   3.872   3.030
 3298SOL    HW210487   5.103   3.994   3.041
 3299SOL     OW10488   4.728   3.750   3.014
 3299SOL    HW110489   4.673   3.680   2.978
 3299SOL    HW210490   4.817   3.714   3.013
 3300SOL     OW10491   4.497   5.053   2.164
 3300SOL    HW110492   4.456   4.968   2.178
 3300SOL    HW210493   4.579   5.049   2.213
 3301SOL     OW10494   4.343   5.293   3.145
 3301SOL    HW110495   4.347   5.369   3.203
 3301SOL    HW210496   4.431   5.285   3.109
 3302SOL     OW10497   5.077   3.776   2.026
 3302SOL    HW110498   5.101   3.726   1.949
 3302SOL    HW210499   4.991   3.743   2.050
 3303SOL     OW10500   5.024   4.181   2.549
 3303SOL    HW110501   4.967   4.258   2.558
 3303SOL    HW210502   5.026   4.143   2.637
 3304SOL     OW10503   5.314   3.936   2.741
 3304SOL    HW110504   5.240   3.947   2.800
 3304SOL    HW210505   5.314   4.016   2.687
 3305SOL     OW10506   3.766   4.800   2.164
 3305SOL    HW110507   3.860   4.789   2.151
 3305SOL    HW210508   3.734   4.714   2.189
 3306SOL     OW10509   5.817   0.615   0.130
 3306SOL    HW110510   5.724   0.625   0.152
 3306SOL    HW210511   5.818   0.597   0.036
 3307SOL     OW10512   5.807   0.278   0.990
 3307SOL    HW110513   5.841   0.254   1.077
 3307SOL    HW210514   5.721   0.237   0.986
 3308SOL     OW10515   5.596   0.380   0.641
 3308SOL    HW110516   5.512   0.403   0.681
 3308SOL    HW210517   5.576   0.302   0.588
 3309SOL     OW10518   7.140   1.511   0.702
 3309SOL    HW110519   7.092   1.497   0.784
 3309SOL    HW210520   7.072   1.519   0.635
 3310SOL     OW10521   6.716   0.701   0.710
 3310SOL    HW110522   6.769   0.779   0.693
 3310SOL    HW210523   6.667   0.721   0.790
 3311SOL     OW10524   7.351   0.606   0.231
 3311SOL    HW110525   7.319   0.603   0.141
 3311SOL    HW210526   7.310   0.529   0.273
 3312SOL     OW10527   6.351   1.144   1.030
 3312SOL    HW110528   6.274   1.172   1.079
 3312SOL    HW210529   6.382   1.224   0.986
 3313SOL     OW10530   6.440   0.791   1.821
 3313SOL    HW110531   6.433   0.863   1.883
 3313SOL    HW210532   6.464   0.833   1.738
 3314SOL     OW10533   6.273   1.013   0.655
 3314SOL    HW110534   6.335   0.994   0.725
 3314SOL    HW210535   6.202   1.061   0.698
 3315SOL     OW10536   6.286   1.155   1.804
 3315SOL    HW110537   6.335   1.235   1.824
 3315SOL    HW210538   6.201   1.186   1.772
 3316SOL     OW10539   7.049   1.499   1.344
 3316SOL    HW110540   7.077   1.589   1.360
 3316SOL    HW210541   7.013   1.469   1.428
 3317SOL     OW10542   6.037   0.401   1.495
 3317SOL    HW110543   6.109   0.337   1.500
 3317SOL    HW210544   5.958   0.348   1.504
 3318SOL     OW10545   7.195   0.449   0.735
 3318SOL    HW110546   7.120   0.486   0.688
 3318SOL    HW210547   7.230   0.523   0.786
 3319SOL     OW10548   5.809   1.712   0.478
 3319SOL    HW110549   5.838   1.787   0.530
 3319SOL    HW210550   5.869   1.710   0.403
 3320SOL     OW10551   6.719   1.340   1.688
 3320SOL    HW110552   6.759   1.339   1.776
 3320SOL    HW210553   6.666   1.260   1.685
 3321SOL     OW10554   5.814   1.437   0.534
 3321SOL    HW110555   5.797   1.531   0.542
 3321SOL    HW210556   5.748   1.396   0.590
 3322SOL     OW10557   5.830   1.093   0.891
 3322SOL    HW110558   5.836   1.007   0.932
 3322SOL    HW210559   5.769   1.142   0.947
 3323SOL     OW10560   6.234   1.785   1.474
 3323SOL    HW110561   6.140   1.765   1.471
 3323SOL    HW210562   6.238   1.880   1.465
 3324SOL     OW10563   6.182   0.970   0.135
 3324SOL    HW110564   6.202   1.035   0.068
 3324SOL    HW210565   6.235   0.995   0.211
 3325SOL     OW10566   7.188   0.117   1.472
 3325SOL    HW110567   7.164   0.188   1.413
 3325SOL    HW210568   7.175   0.154   1.559
 3326SOL     OW10569   5.703   0.647   0.561
 3326SOL    HW110570   5.670   0.559   0.580
 3326SOL    HW210571   5.694   0.695   0.644
 3327SOL     OW10572   7.436   1.768   0.346
 3327SOL    HW110573   7.478   1.740   0.427
 3327SOL    HW210574   7.475   1.854   0.327
 3328SOL     OW10575   5.613   1.610   0.139
 3328SOL    HW110576   5.587   1.518   0.153
 3328SOL    HW210577   5.581   1.655   0.217
 3329SOL     OW10578   7.277   0.917   0.627
 3329SOL    HW110579   7.368   0.890   0.617
 3329SOL    HW210580   7.259   0.972   0.551
 3330SOL     OW10581   7.232   1.105   0.434
 3330SOL    HW110582   7.311   1.121   0.383
 3330SOL    HW210583   7.238   1.166   0.508
 3331SOL     OW10584   5.705   0.739   1.587
 3331SOL    HW110585   5.793   0.746   1.624
 3331SOL    HW210586   5.672   0.829   1.589
 3332SOL     OW10587   6.200   1.372   0.732
 3332SOL    HW110588   6.150   1.290   0.738
 3332SOL    HW210589   6.179   1.406   0.645
 3333SOL     OW10590   6.879   1.237   1.425
 3333SOL    HW110591   6.913   1.167   1.368
 3333SOL    HW210592   6.931   1.229   1.505
 3334SOL     OW10593   6.397   0.003   0.493
 3334SOL    HW110594   6.435   0.091   0.488
 3334SOL    HW210595   6.303   0.017   0.499
 3335SOL     OW10596   5.779   0.971   1.259
 3335SOL    HW110597   5.863   0.926   1.252
 3335SOL    HW210598   5.714   0.903   1.241
 3336SOL     OW10599   7.111   0.997   0.195
 3336SOL    HW110600   7.048   0.928   0.218
 3336SOL    HW210601   7.153   1.020   0.277
 3337SOL     OW10602   6.771   1.799   1.617
 3337SOL    HW110603   6.794   1.853   1.542
 3337SOL    HW210604   6.783   1.709   1.586
 3338SOL     OW10605   5.915   0.255   1.805
 3338SOL    HW110606   5.970   0.332   1.815
 3338SOL    HW210607   5.827   0.284   1.831
 3339SOL     OW10608   7.051   1.419   0.954
 3339SOL    HW110609   6.985   1.430   1.023
 3339SOL    HW210610   7.039   1.329   0.923
 3340SOL     OW10611   7.253   1.722   0.575
 3340SOL    HW110612   7.219   1.697   0.489
 3340SOL    HW210613   7.227   1.650   0.633
 3341SOL     OW10614   6.183   0.726   0.262
 3341SOL    HW110615   6.195   0.804   0.207
 3341SOL    HW210616   6.117   0.752   0.326
 3342SOL     OW10617   6.868   0.343   0.933
 3342SOL    HW110618   6.780   0.306   0.938
 3342SOL    HW210619   6.918   0.294   0.998
 3343SOL     OW10620   7.167   1.667   0.309
 3343SOL    HW110621   7.255   1.704   0.303
 3343SOL    HW210622   7.146   1.642   0.219
 3344SOL     OW10623   6.384   0.613   1.457
 3344SOL    HW110624   6.352   0.595   1.545
 3344SOL    HW210625   6.337   0.550   1.402
 3345SOL     OW10626   6.979   0.472   1.677
 3345SOL    HW110627   6.974   0.515   1.762
 3345SOL    HW210628   7.049   0.407   1.687
 3346SOL     OW10629   6.550   0.891   1.577
 3346SOL    HW110630   6.602   0.817   1.546
 3346SOL    HW210631   6.502   0.921   1.500
 3347SOL     OW10632   6.578   0.414   1.240
 3347SOL    HW110633   6.499   0.438   1.288
 3347SOL    HW210634   6.547   0.362   1.166
 3348SOL     OW10635   6.633   0.700   0.428
 3348SOL    HW110636   6.647   0.694   0.523
 3348SOL    HW210637   6.551   0.653   0.413
 3349SOL     OW10638   5.672   0.817   0.776
 3349SOL    HW110639   5.757   0.807   0.817
 3349SOL    HW210640   5.636   0.898   0.812
 3350SOL     OW10641   5.709   1.811   1.570
 3350SOL    HW110642   5.706   1.811   1.665
 3350SOL    HW210643   5.637   1.868   1.543
 3351SOL     OW10644   6.456   0.355   0.192
 3351SOL    HW110645   6.522   0.401   0.141
 3351SOL    HW210646   6.465   0.263   0.165
 3352SOL     OW10647   7.300   0.581   1.831
 3352SOL    HW110648   7.270   0.663   1.790
 3352SOL    HW210649   7.313   0.521   1.757
 3353SOL     OW10650   6.956   1.144   0.544
 3353SOL    HW110651   7.033   1.123   0.490
 3353SOL    HW210652   6.906   1.206   0.490
 3354SOL     OW10653   6.130   0.196   0.884
 3354SOL    HW110654   6.139   0.203   0.979
 3354SOL    HW210655   6.141   0.286   0.852
 3355SOL     OW10656   6.597   1.450   0.476
 3355SOL    HW110657   6.552   1.520   0.428
 3355SOL    HW210658   6.588   1.475   0.568
 3356SOL     OW10659   5.940   1.803   0.851
 3356SOL    HW110660   5.983   1.718   0.864
 3356SOL    HW210661   6.011   1.867   0.859
 3357SOL     OW10662   7.389   1.069   0.870
 3357SOL    HW110663   7.328   1.051   0.799
 3357SOL    HW210664   7.334   1.074   0.948
 3358SOL     OW10665   6.816   1.544   1.508
 3358SOL    HW110666   6.806   1.470   1.568
 3358SOL    HW210667   6.757   1.524   1.436
 3359SOL     OW10668   5.901   0.951   0.225
 3359SOL    HW110669   5.990   0.972   0.196
 3359SOL    HW210670   5.891   0.857   0.206
 3360SOL     OW10671   7.054   0.733   0.727
 3360SOL    HW110672   7.043   0.683   0.808
 3360SOL    HW210673   7.128   0.791   0.745
 3361SOL     OW10674   6.048   1.261   1.736
 3361SOL    HW110675   6.013   1.268   1.647
 3361SOL    HW210676   5.971   1.258   1.792
 3362SOL     OW10677   6.690   1.784   0.234
 3362SOL    HW110678   6.637   1.728   0.290
 3362SOL    HW210679   6.722   1.725   0.165
 3363SOL     OW10680   5.791   0.308   1.497
 3363SOL    HW110681   5.704   0.347   1.488
 3363SOL    HW210682   5.778   0.233   1.554
 3364SOL     OW10683   7.223   1.376   0.096
 3364SOL    HW110684   7.184   1.462   0.076
 3364SOL    HW210685   7.156   1.313   0.070
 3365SOL     OW10686   6.053   1.739   0.324
 3365SOL    HW110687   6.087   1.791   0.396
 3365SOL    HW210688   6.128   1.728   0.265
 3366SOL     OW10689   6.984   0.114   0.427
 3366SOL    HW110690   6.970   0.084   0.337
 3366SOL    HW210691   7.079   0.121   0.437
 3367SOL     OW10692   6.526   1.700   0.901
 3367SOL    HW110693   6.598   1.642   0.925
 3367SOL    HW210694   6.478   1.652   0.833
 3368SOL     OW10695   5.972   0.697   0.479
 3368SOL    HW110696   6.004   0.607   0.482
 3368SOL    HW210697   5.879   0.691   0.503
 3369SOL     OW10698   7.127   0.228   1.724
 3369SOL    HW110699   7.132   0.250   1.817
 3369SOL    HW210700   7.064   0.157   1.719
 3370SOL     OW10701   6.199   0.137   0.105
 3370SOL    HW110702   6.284   0.097   0.122
 3370SOL    HW210703   6.171   0.099   0.022
 3371SOL     OW10704   6.360   0.271   1.750
 3371SOL    HW110705   6.428   0.210   1.777
 3371SOL    HW210706   6.299   0.273   1.824
 3372SOL     OW10707   6.521   1.524   1.175
 3372SOL    HW110708   6.466   1.483   1.108
 3372SOL    HW210709   6.552   1.451   1.229
 3373SOL     OW10710   6.930   0.589   1.432
 3373SOL    HW110711   6.961   0.555   1.516
 3373SOL    HW210712   6.964   0.679   1.430
 3374SOL     OW10713   6.392   1.398   0.930
 3374SOL    HW110714   6.477   1.402   0.886
 3374SOL    HW210715   6.328   1.397   0.859
 3375SOL     OW10716   6.511   0.508   0.903
 3375SOL    HW110717   6.488   0.496   0.811
 3375SOL    HW210718   6.549   0.424   0.929
 3376SOL     OW10719   6.133   0.061   0.509
 3376SOL    HW110720   6.050   0.059   0.557
 3376SOL    HW210721   6.127   0.138   0.454
 3377SOL     OW10722   7.012   1.196   0.033
 3377SOL    HW110723   7.050   1.124   0.084
 3377SOL    HW210724   6.928   1.213   0.075
 3378SOL     OW10725   5.883   0.054   0.193
 3378SOL    HW110726   5.938   0.122   0.153
 3378SOL    HW210727   5.944  -0.016   0.216
 3379SOL     OW10728   6.521   0.242   0.472
 3379SOL    HW110729   6.486   0.283   0.393
 3379SOL    HW210730   6.616   0.252   0.463
 3380SOL     OW10731   6.665   0.679   1.461
 3380SOL    HW110732   6.592   0.617   1.467
 3380SOL    HW210733   6.742   0.624   1.448
 3381SOL     OW10734   6.812   1.568   0.792
 3381SOL    HW110735   6.834   1.639   0.731
 3381SOL    HW210736   6.878   1.576   0.861
 3382SOL     OW10737   6.049   1.144   0.743
 3382SOL    HW110738   5.974   1.130   0.800
 3382SOL    HW210739   6.016   1.127   0.655
 3383SOL     OW10740   6.858   1.797   0.598
 3383SOL    HW110741   6.899   1.860   0.539
 3383SOL    HW210742   6.801   1.850   0.654
 3384SOL     OW10743   6.607   0.544   0.034
 3384SOL    HW110744   6.587   0.623  -0.016
 3384SOL    HW210745   6.682   0.567   0.088
 3385SOL     OW10746   5.659   0.559   1.387
 3385SOL    HW110747   5.750   0.554   1.358
 3385SOL    HW210748   5.659   0.627   1.455
 3386SOL     OW10749   6.151   0.228   1.156
 3386SOL    HW110750   6.185   0.145   1.190
 3386SOL    HW210751   6.061   0.232   1.189
 3387SOL     OW10752   6.457   0.459   0.641
 3387SOL    HW110753   6.414   0.516   0.577
 3387SOL    HW210754   6.473   0.378   0.593
 3388SOL     OW10755   6.595   0.048   0.763
 3388SOL    HW110756   6.536   0.046   0.688
 3388SOL    HW210757   6.579  -0.035   0.808
 3389SOL     OW10758   7.020   1.166   0.861
 3389SOL    HW110759   6.957   1.094   0.856
 3389SOL    HW210760   7.039   1.187   0.769
 3390SOL     OW10761   7.056   0.596   0.988
 3390SOL    HW110762   7.016   0.510   0.995
 3390SOL    HW210763   7.120   0.599   1.059
 3391SOL     OW10764   7.446   0.829   0.376
 3391SOL    HW110765   7.493   0.769   0.434
 3391SOL    HW210766   7.408   0.773   0.309
 3392SOL     OW10767   6.080   1.393   0.160
 3392SOL    HW110768   6.009   1.370   0.220
 3392SOL    HW210769   6.035   1.417   0.079
 3393SOL     OW10770   7.257   1.270   0.654
 3393SOL    HW110771   7.350   1.284   0.671
 3393SOL    HW210772   7.216   1.354   0.676
 3394SOL     OW10773   6.970   0.573   0.071
 3394SOL    HW110774   6.920   0.552   0.150
 3394SOL    HW210775   7.057   0.538   0.088
 3395SOL     OW10776   6.114   0.262   0.327
 3395SOL    HW110777   6.146   0.209   0.254
 3395SOL    HW210778   6.102   0.349   0.289
 3396SOL     OW10779   7.342   1.229   1.578
 3396SOL    HW110780   7.431   1.193   1.581
 3396SOL    HW210781   7.352   1.318   1.612
 3397SOL     OW10782   6.651   1.345   1.337
 3397SOL    HW110783   6.577   1.320   1.392
 3397SOL    HW210784   6.728   1.309   1.382
 3398SOL     OW10785   7.184   1.626   1.643
 3398SOL    HW110786   7.193   1.659   1.553
 3398SOL    HW210787   7.268   1.584   1.661
 3399SOL     OW10788   6.701   1.194   1.106
 3399SOL    HW110789   6.655   1.241   1.175
 3399SOL    HW210790   6.667   1.233   1.025
 3400SOL     OW10791   7.221   1.100   1.079
 3400SOL    HW110792   7.219   1.169   1.146
 3400SOL    HW210793   7.138   1.111   1.032
 3401SOL     OW10794   6.499   0.097   1.404
 3401SOL    HW110795   6.521   0.074   1.314
 3401SOL    HW210796   6.579   0.137   1.439
 3402SOL     OW10797   6.569   1.114   1.719
 3402SOL    HW110798   6.475   1.124   1.735
 3402SOL    HW210799   6.576   1.036   1.664
 3403SOL     OW10800   6.294   1.058   0.372
 3403SOL    HW110801   6.282   1.049   0.467
 3403SOL    HW210802   6.371   1.005   0.353
 3404SOL     OW10803   5.999   0.814   1.252
 3404SOL    HW110804   6.073   0.822   1.313
 3404SOL    HW210805   5.963   0.727   1.270
 3405SOL     OW10806   6.858   0.382   1.266
 3405SOL    HW110807   6.884   0.458   1.318
 3405SOL    HW210808   6.770   0.403   1.234
 3406SOL     OW10809   5.945   1.103   0.496
 3406SOL    HW110810   5.946   1.178   0.437
 3406SOL    HW210811   5.951   1.027   0.439
 3407SOL     OW10812   6.145   0.539   0.864
 3407SOL    HW110813   6.165   0.598   0.791
 3407SOL    HW210814   6.202   0.570   0.935
 3408SOL     OW10815   6.834   1.346   0.391
 3408SOL    HW110816   6.886   1.421   0.423
 3408SOL    HW210817   6.746   1.363   0.423
 3409SOL     OW10818   6.860   1.450   1.143
 3409SOL    HW110819   6.909   1.456   1.225
 3409SOL    HW210820   6.800   1.377   1.156
 3410SOL     OW10821   7.172   0.633   0.474
 3410SOL    HW110822   7.132   0.692   0.538
 3410SOL    HW210823   7.211   0.691   0.409
 3411SOL     OW10824   5.995   0.747   1.600
 3411SOL    HW110825   6.058   0.794   1.544
 3411SOL    HW210826   6.036   0.663   1.618
 3412SOL     OW10827   7.176   0.774   1.673
 3412SOL    HW110828   7.090   0.816   1.667
 3412SOL    HW210829   7.230   0.820   1.609
 3413SOL     OW10830   6.589   0.120   1.770
 3413SOL    HW110831   6.623   0.191   1.716
 3413SOL    HW210832   6.622   0.040   1.727
 3414SOL     OW10833   6.084   0.046   1.746
 3414SOL    HW110834   6.044  -0.007   1.677
 3414SOL    HW210835   6.021   0.117   1.761
 3415SOL     OW10836   6.164   0.869   1.029
 3415SOL    HW110837   6.199   0.958   1.024
 3415SOL    HW210838   6.107   0.870   1.106
 3416SOL     OW10839   6.948   0.861   1.039
 3416SOL    HW110840   6.872   0.857   0.982
 3416SOL    HW210841   6.980   0.770   1.043
 3417SOL     OW10842   6.797   0.528   0.274
 3417SOL    HW110843   6.802   0.449   0.329
 3417SOL    HW210844   6.759   0.594   0.331
 3418SOL     OW10845   5.894   0.209   1.241
 3418SOL    HW110846   5.860   0.246   1.323
 3418SOL    HW210847   5.861   0.119   1.241
 3419SOL     OW10848   6.316   0.634   1.063
 3419SOL    HW110849   6.382   0.612   0.997
 3419SOL    HW210850   6.289   0.723   1.041
 3420SOL     OW10851   7.322   0.954   1.851
 3420SOL    HW110852   7.272   0.917   1.778
 3420SOL    HW210853   7.256   0.969   1.920
 3421SOL     OW10854   5.883   0.062   0.624
 3421SOL    HW110855   5.878   0.152   0.654
 3421SOL    HW210856   5.892   0.010   0.704
 3422SOL     OW10857   7.197   0.369   0.371
 3422SOL    HW110858   7.221   0.305   0.437
 3422SOL    HW210859   7.170   0.446   0.421
 3423SOL     OW10860   6.610   0.763   0.965
 3423SOL    HW110861   6.618   0.779   1.059
 3423SOL    HW210862   6.584   0.671   0.959
 3424SOL     OW10863   6.569   1.567   1.709
 3424SOL    HW110864   6.551   1.611   1.626
 3424SOL    HW210865   6.609   1.484   1.683
 3425SOL     OW10866   7.445   1.516   1.604
 3425SOL    HW110867   7.467   1.540   1.513
 3425SOL    HW210868   7.524   1.538   1.654
 3426SOL     OW10869   5.937   0.913   1.805
 3426SOL    HW110870   6.019   0.934   1.851
 3426SOL    HW210871   5.963   0.853   1.735
 3427SOL     OW10872   7.128   0.271   0.124
 3427SOL    HW110873   7.061   0.208   0.146
 3427SOL    HW210874   7.151   0.313   0.207
 3428SOL     OW10875   6.889   0.831   0.035
 3428SOL    HW110876   6.921   0.741   0.043
 3428SOL    HW210877   6.905   0.855  -0.056
 3429SOL     OW10878   6.652   1.333   0.851
 3429SOL    HW110879   6.657   1.259   0.791
 3429SOL    HW210880   6.715   1.396   0.816
 3430SOL     OW10881   5.900   0.814   0.952
 3430SOL    HW110882   5.993   0.834   0.946
 3430SOL    HW210883   5.897   0.726   0.989
 3431SOL     OW10884   5.921   0.517   1.007
 3431SOL    HW110885   5.883   0.431   0.990
 3431SOL    HW210886   5.997   0.521   0.949
 3432SOL     OW10887   6.722   0.382   1.677
 3432SOL    HW110888   6.680   0.438   1.743
 3432SOL    HW210889   6.812   0.416   1.671
 3433SOL     OW10890   6.739   0.207   1.473
 3433SOL    HW110891   6.739   0.270   1.545
 3433SOL    HW210892   6.777   0.255   1.399
 3434SOL     OW10893   5.591   1.329   0.200
 3434SOL    HW110894   5.503   1.341   0.163
 3434SOL    HW210895   5.597   1.236   0.219
 3435SOL     OW10896   5.673   1.805   0.907
 3435SOL    HW110897   5.640   1.717   0.889
 3435SOL    HW210898   5.767   1.799   0.893
 3436SOL     OW10899   6.086   1.577   0.891
 3436SOL    HW110900   6.156   1.633   0.923
 3436SOL    HW210901   6.129   1.497   0.864
 3437SOL     OW10902   6.580   0.799   1.233
 3437SOL    HW110903   6.627   0.768   1.311
 3437SOL    HW210904   6.493   0.761   1.241
 3438SOL     OW10905   5.624   0.542   1.115
 3438SOL    HW110906   5.707   0.519   1.073
 3438SOL    HW210907   5.646   0.552   1.207
 3439SOL     OW10908   5.777   0.517   1.724
 3439SOL    HW110909   5.830   0.481   1.653
 3439SOL    HW210910   5.723   0.584   1.681
 3440SOL     OW10911   6.961   0.944   1.660
 3440SOL    HW110912   6.984   1.037   1.667
 3440SOL    HW210913   6.961   0.927   1.566
 3441SOL     OW10914   6.401   0.571   0.344
 3441SOL    HW110915   6.404   0.492   0.289
 3441SOL    HW210916   6.317   0.612   0.322
 3442SOL     OW10917   7.238   0.599   1.191
 3442SOL    HW110918   7.216   0.541   1.264
 3442SOL    HW210919   7.326   0.573   1.165
 3443SOL     OW10920   5.833   1.552   1.737
 3443SOL    HW110921   5.809   1.614   1.806
 3443SOL    HW210922   5.829   1.467   1.779
 3444SOL     OW10923   6.270   0.460   1.267
 3444SOL    HW110924   6.227   0.381   1.234
 3444SOL    HW210925   6.277   0.517   1.190
 3445SOL     OW10926   6.527   1.675   1.462
 3445SOL    HW110927   6.490   1.657   1.375
 3445SOL    HW210928   6.527   1.771   1.468
 3446SOL     OW10929   6.056   0.495   0.199
 3446SOL    HW110930   6.112   0.572   0.202
 3446SOL    HW210931   5.967   0.530   0.190
 3447SOL     OW10932   5.737   1.136   1.470
 3447SOL    HW110933   5.753   1.078   1.544
 3447SOL    HW210934   5.753   1.081   1.393
 3448SOL     OW10935   6.924   1.052   1.230
 3448SOL    HW110936   6.948   0.993   1.159
 3448SOL    HW210937   6.845   1.097   1.198
 3449SOL     OW10938   6.892   0.848   0.311
 3449SOL    HW110939   6.808   0.827   0.351
 3449SOL    HW210940   6.876   0.845   0.217
 3450SOL     OW10941   7.345   1.751   1.146
 3450SOL    HW110942   7.410   1.772   1.079
 3450SOL    HW210943   7.324   1.659   1.130
 3451SOL     OW10944   6.832   1.733   1.124
 3451SOL    HW110945   6.913   1.741   1.074
 3451SOL    HW210946   6.823   1.639   1.140
 3452SOL     OW10947   6.270   1.661   1.722
 3452SOL    HW110948   6.215   1.740   1.723
 3452SOL    HW210949   6.320   1.668   1.641
 3453SOL     OW10950   6.497   0.096   0.126
 3453SOL    HW110951   6.549   0.075   0.048
 3453SOL    HW210952   6.532   0.039   0.194
 3454SOL     OW10953   7.302   0.131   0.501
 3454SOL    HW110954   7.389   0.119   0.464
 3454SOL    HW210955   7.291   0.060   0.564
 3455SOL     OW10956   6.976   1.569   0.480
 3455SOL    HW110957   7.036   1.594   0.410
 3455SOL    HW210958   6.933   1.651   0.505
 3456SOL     OW10959   5.720   1.797   1.844
 3456SOL    HW110960   5.672   1.731   1.895
 3456SOL    HW210961   5.772   1.844   1.909
 3457SOL     OW10962   6.863   0.923   0.671
 3457SOL    HW110963   6.934   0.858   0.672
 3457SOL    HW210964   6.898   0.995   0.619
 3458SOL     OW10965   6.409   1.270   1.433
 3458SOL    HW110966   6.398   1.306   1.521
 3458SOL    HW210967   6.330   1.298   1.386
 3459SOL     OW10968   6.261   1.612   0.161
 3459SOL    HW110969   6.256   1.632   0.067
 3459SOL    HW210970   6.210   1.532   0.171
 3460SOL     OW10971   7.233   1.724   1.394
 3460SOL    HW110972   7.277   1.734   1.310
 3460SOL    HW210973   7.213   1.813   1.422
 3461SOL     OW10974   5.854   0.321   0.720
 3461SOL    HW110975   5.771   0.360   0.692
 3461SOL    HW210976   5.844   0.310   0.815
 3462SOL     OW10977   6.772   1.615   0.053
 3462SOL    HW110978   6.777   1.522   0.076
 3462SOL    HW210979   6.747   1.616  -0.039
 3463SOL     OW10980   6.407   1.006   1.369
 3463SOL    HW110981   6.456   1.003   1.287
 3463SOL    HW210982   6.416   1.096   1.400
 3464SOL     OW10983   6.502   0.911   0.290
 3464SOL    HW110984   6.564   0.945   0.225
 3464SOL    HW210985   6.547   0.836   0.329
 3465SOL     OW10986   7.090   1.619   0.044
 3465SOL    HW110987   6.996   1.632   0.037
 3465SOL    HW210988   7.123   1.632  -0.045
 3466SOL     OW10989   5.954   1.295   1.494
 3466SOL    HW110990   5.943   1.377   1.447
 3466SOL    HW210991   5.873   1.246   1.476
 3467SOL     OW10992   7.207   1.289   1.285
 3467SOL    HW110993   7.257   1.286   1.366
 3467SOL    HW210994   7.139   1.355   1.301
 3468SOL     OW10995   6.628   1.101   0.702
 3468SOL    HW110996   6.560   1.049   0.744
 3468SOL    HW210997   6.686   1.036   0.662
 3469SOL     OW10998   6.606   0.240   0.965
 3469SOL    HW110999   6.594   0.193   0.882
 3469SOL    HW211000   6.595   0.174   1.032
 3470SOL     OW11001   6.184   1.490   0.486
 3470SOL    HW111002   6.218   1.436   0.416
 3470SOL    HW211003   6.126   1.553   0.443
 3471SOL     OW11004   7.301   0.394   1.382
 3471SOL    HW111005   7.372   0.458   1.383
 3471SOL    HW211006   7.334   0.322   1.327
 3472SOL     OW11007   5.846   1.349   0.288
 3472SOL    HW111008   5.754   1.345   0.261
 3472SOL    HW211009   5.843   1.389   0.375
 3473SOL     OW11010   5.696   1.011   1.722
 3473SOL    HW111011   5.621   0.988   1.776
 3473SOL    HW211012   5.772   0.979   1.770
 3474SOL     OW11013   6.254   0.202   1.492
 3474SOL    HW111014   6.338   0.179   1.452
 3474SOL    HW211015   6.275   0.215   1.585
 3475SOL     OW11016   5.652   0.337   0.034
 3475SOL    HW111017   5.559   0.332   0.011
 3475SOL    HW211018   5.682   0.417  -0.008
 3476SOL     OW11019   7.022   0.858   1.402
 3476SOL    HW111020   6.973   0.913   1.341
 3476SOL    HW211021   7.113   0.865   1.373
 3477SOL     OW11022   5.652   0.160   0.316
 3477SOL    HW111023   5.645   0.242   0.267
 3477SOL    HW211024   5.738   0.126   0.294
 3478SOL     OW11025   6.771   1.350   0.119
 3478SOL    HW111026   6.680   1.321   0.116
 3478SOL    HW211027   6.796   1.340   0.211
 3479SOL     OW11028   6.201   0.836   1.429
 3479SOL    HW111029   6.258   0.912   1.418
 3479SOL    HW211030   6.261   0.762   1.438
 3480SOL     OW11031   7.075   1.770   0.966
 3480SOL    HW111032   7.107   1.828   0.897
 3480SOL    HW211033   7.148   1.761   1.027
 3481SOL     OW11034   6.302   0.565   1.708
 3481SOL    HW111035   6.330   0.628   1.775
 3481SOL    HW211036   6.351   0.486   1.728
 3482SOL     OW11037   7.046   1.209   1.634
 3482SOL    HW111038   7.037   1.218   1.729
 3482SOL    HW211039   7.141   1.215   1.619
 3483SOL     OW11040   5.972   1.738   1.589
 3483SOL    HW111041   5.884   1.773   1.575
 3483SOL    HW211042   5.957   1.647   1.615
 3484SOL     OW11043   7.259   0.883   1.256
 3484SOL    HW111044   7.245   0.798   1.214
 3484SOL    HW211045   7.255   0.946   1.184
 3485SOL     OW11046   6.807   0.321   0.454
 3485SOL    HW111047   6.872   0.251   0.447
 3485SOL    HW211048   6.833   0.369   0.534
 3486SOL     OW11049   6.179   0.744   0.661
 3486SOL    HW111050   6.221   0.827   0.641
 3486SOL    HW211051   6.103   0.741   0.602
 3487SOL     OW11052   7.362   0.350   1.646
 3487SOL    HW111053   7.340   0.367   1.554
 3487SOL    HW211054   7.286   0.302   1.680
 3488SOL     OW11055   7.322   0.934   1.515
 3488SOL    HW111056   7.342   1.027   1.525
 3488SOL    HW211057   7.312   0.922   1.420
 3489SOL     OW11058   6.494   1.377   0.041
 3489SOL    HW111059   6.419   1.378   0.102
 3489SOL    HW211060   6.484   1.458  -0.009
 3490SOL     OW11061   6.249   1.795   0.946
 3490SOL    HW111062   6.220   1.883   0.923
 3490SOL    HW211063   6.344   1.797   0.939
 3491SOL     OW11064   6.447   0.959   0.858
 3491SOL    HW111065   6.501   0.892   0.902
 3491SOL    HW211066   6.421   1.019   0.928
 3492SOL     OW11067   6.683   1.003   0.100
 3492SOL    HW111068   6.633   1.014   0.019
 3492SOL    HW211069   6.751   0.939   0.077
 3493SOL     OW11070   7.452   1.569   0.850
 3493SOL    HW111071   7.378   1.559   0.790
 3493SOL    HW211072   7.442   1.498   0.913
 3494SOL     OW11073   5.810   1.307   1.853
 3494SOL    HW111074   5.741   1.245   1.828
 3494SOL    HW211075   5.797   1.321   1.946
 3495SOL     OW11076   5.668   1.239   0.660
 3495SOL    HW111077   5.668   1.185   0.739
 3495SOL    HW211078   5.740   1.206   0.607
 3496SOL     OW11079   6.261   1.396   1.621
 3496SOL    HW111080   6.184   1.353   1.657
 3496SOL    HW211081   6.258   1.485   1.658
 3497SOL     OW11082   7.435   0.216   1.241
 3497SOL    HW111083   7.403   0.129   1.266
 3497SOL    HW211084   7.422   0.220   1.147
 3498SOL     OW11085   6.015   0.431   0.522
 3498SOL    HW111086   6.043   0.359   0.465
 3498SOL    HW211087   5.974   0.387   0.597
 3499SOL     OW11088   7.291   1.492   1.105
 3499SOL    HW111089   7.207   1.464   1.068
 3499SOL    HW211090   7.308   1.430   1.175
 3500SOL     OW11091   5.908   0.549   1.287
 3500SOL    HW111092   5.959   0.494   1.346
 3500SOL    HW211093   5.938   0.523   1.199
 3501SOL     OW11094   6.407   1.577   0.685
 3501SOL    HW111095   6.415   1.607   0.594
 3501SOL    HW211096   6.324   1.529   0.687
 3502SOL     OW11097   7.019   0.220   1.117
 3502SOL    HW111098   7.061   0.154   1.171
 3502SOL    HW211099   6.964   0.270   1.177
 3503SOL     OW11100   6.574   0.037   1.146
 3503SOL    HW111101   6.532  -0.049   1.140
 3503SOL    HW211102   6.668   0.017   1.148
 3504SOL     OW11103   6.353   1.331   0.305
 3504SOL    HW111104   6.318   1.243   0.317
 3504SOL    HW211105   6.440   1.328   0.345
 3505SOL     OW11106   6.941   0.050   0.165
 3505SOL    HW111107   6.973   0.016   0.080
 3505SOL    HW211108   6.853   0.014   0.173
 3506SOL     OW11109   6.885   0.457   0.686
 3506SOL    HW111110   6.829   0.534   0.696
 3506SOL    HW211111   6.888   0.418   0.774
 3507SOL     OW11112   7.182   0.215   0.880
 3507SOL    HW111113   7.108   0.224   0.939
 3507SOL    HW211114   7.180   0.294   0.826
 3508SOL     OW11115   5.626   1.075   0.303
 3508SOL    HW111116   5.721   1.068   0.296
 3508SOL    HW211117   5.598   0.989   0.333
 3509SOL     OW11118   6.463   1.646   0.348
 3509SOL    HW111119   6.393   1.625   0.286
 3509SOL    HW211120   6.430   1.723   0.395
 3510SOL     OW11121   5.817   0.627   1.980
 3510SOL    HW111122   5.726   0.625   2.011
 3510SOL    HW211123   5.812   0.594   1.890
 3511SOL     OW11124   5.808   0.277   2.851
 3511SOL    HW111125   5.841   0.255   2.938
 3511SOL    HW211126   5.721   0.238   2.848
 3512SOL     OW11127   5.596   0.379   2.503
 3512SOL    HW111128   5.513   0.404   2.543
 3512SOL    HW211129   5.575   0.302   2.450
 3513SOL     OW11130   6.153   1.276   3.029
 3513SOL    HW111131   6.065   1.277   2.993
 3513SOL    HW211132   6.165   1.363   3.067
 3514SOL     OW11133   7.140   1.511   2.564
 3514SOL    HW111134   7.092   1.498   2.646
 3514SOL    HW211135   7.072   1.519   2.497
 3515SOL     OW11136   6.716   0.701   2.571
 3515SOL    HW111137   6.769   0.779   2.555
 3515SOL    HW211138   6.667   0.721   2.652
 3516SOL     OW11139   7.343   0.610   2.097
 3516SOL    HW111140   7.331   0.598   2.003
 3516SOL    HW211141   7.313   0.527   2.135
 3517SOL     OW11142   6.350   1.146   2.893
 3517SOL    HW111143   6.278   1.174   2.949
 3517SOL    HW211144   6.381   1.226   2.851
 3518SOL     OW11145   6.273   1.013   2.517
 3518SOL    HW111146   6.335   0.994   2.588
 3518SOL    HW211147   6.202   1.061   2.560
 3519SOL     OW11148   5.918   1.434   2.929
 3519SOL    HW111149   5.847   1.400   2.875
 3519SOL    HW211150   5.972   1.485   2.868
 3520SOL     OW11151   7.052   1.499   3.201
 3520SOL    HW111152   7.083   1.588   3.220
 3520SOL    HW211153   7.014   1.469   3.284
 3521SOL     OW11154   6.038   0.400   3.353
 3521SOL    HW111155   6.108   0.335   3.361
 3521SOL    HW211156   5.958   0.350   3.364
 3522SOL     OW11157   7.195   0.449   2.598
 3522SOL    HW111158   7.120   0.486   2.550
 3522SOL    HW211159   7.230   0.523   2.648
 3523SOL     OW11160   5.810   1.712   2.341
 3523SOL    HW111161   5.839   1.788   2.391
 3523SOL    HW211162   5.868   1.709   2.265
 3524SOL     OW11163   5.814   1.437   2.396
 3524SOL    HW111164   5.796   1.530   2.404
 3524SOL    HW211165   5.749   1.394   2.451
 3525SOL     OW11166   5.833   1.090   2.750
 3525SOL    HW111167   5.835   1.007   2.797
 3525SOL    HW211168   5.777   1.147   2.802
 3526SOL     OW11169   6.206   1.787   3.299
 3526SOL    HW111170   6.120   1.773   3.339
 3526SOL    HW211171   6.227   1.879   3.318
 3527SOL     OW11172   6.181   0.974   1.990
 3527SOL    HW111173   6.213   1.038   1.927
 3527SOL    HW211174   6.228   0.994   2.071
 3528SOL     OW11175   7.183   0.118   3.340
 3528SOL    HW111176   7.168   0.189   3.277
 3528SOL    HW211177   7.174   0.160   3.425
 3529SOL     OW11178   5.703   0.647   2.423
 3529SOL    HW111179   5.670   0.559   2.443
 3529SOL    HW211180   5.695   0.695   2.505
 3530SOL     OW11181   7.437   1.767   2.206
 3530SOL    HW111182   7.478   1.740   2.288
 3530SOL    HW211183   7.474   1.853   2.188
 3531SOL     OW11184   5.612   1.597   1.984
 3531SOL    HW111185   5.597   1.505   2.005
 3531SOL    HW211186   5.585   1.644   2.064
 3532SOL     OW11187   7.277   0.918   2.489
 3532SOL    HW111188   7.368   0.890   2.479
 3532SOL    HW211189   7.259   0.972   2.412
 3533SOL     OW11190   7.231   1.107   2.294
 3533SOL    HW111191   7.313   1.119   2.247
 3533SOL    HW211192   7.238   1.166   2.369
 3534SOL     OW11193   5.704   0.736   3.450
 3534SOL    HW111194   5.794   0.747   3.481
 3534SOL    HW211195   5.669   0.825   3.444
 3535SOL     OW11196   6.198   1.374   2.594
 3535SOL    HW111197   6.151   1.291   2.601
 3535SOL    HW211198   6.179   1.405   2.506
 3536SOL     OW11199   6.885   1.237   3.297
 3536SOL    HW111200   6.913   1.170   3.235
 3536SOL    HW211201   6.935   1.219   3.376
 3537SOL     OW11202   6.397   0.003   2.356
 3537SOL    HW111203   6.435   0.091   2.350
 3537SOL    HW211204   6.303   0.018   2.362
 3538SOL     OW11205   5.781   0.974   3.124
 3538SOL    HW111206   5.864   0.927   3.112
 3538SOL    HW211207   5.714   0.911   3.100
 3539SOL     OW11208   7.118   0.992   2.054
 3539SOL    HW111209   7.049   0.929   2.077
 3539SOL    HW211210   7.154   1.020   2.138
 3540SOL     OW11211   7.050   1.420   2.815
 3540SOL    HW111212   6.985   1.430   2.885
 3540SOL    HW211213   7.039   1.330   2.785
 3541SOL     OW11214   7.253   1.722   2.436
 3541SOL    HW111215   7.218   1.697   2.351
 3541SOL    HW211216   7.227   1.650   2.495
 3542SOL     OW11217   6.181   0.725   2.126
 3542SOL    HW111218   6.197   0.801   2.070
 3542SOL    HW211219   6.114   0.755   2.188
 3543SOL     OW11220   6.868   0.343   2.795
 3543SOL    HW111221   6.780   0.307   2.800
 3543SOL    HW211222   6.918   0.294   2.860
 3544SOL     OW11223   7.168   1.665   2.170
 3544SOL    HW111224   7.255   1.704   2.165
 3544SOL    HW211225   7.145   1.645   2.079
 3545SOL     OW11226   6.388   0.610   3.318
 3545SOL    HW111227   6.353   0.597   3.406
 3545SOL    HW211228   6.338   0.551   3.262
 3546SOL     OW11229   6.555   0.895   3.432
 3546SOL    HW111230   6.600   0.818   3.397
 3546SOL    HW211231   6.499   0.925   3.360
 3547SOL     OW11232   6.578   0.412   3.104
 3547SOL    HW111233   6.497   0.440   3.148
 3547SOL    HW211234   6.548   0.363   3.028
 3548SOL     OW11235   6.633   0.699   2.290
 3548SOL    HW111236   6.647   0.694   2.385
 3548SOL    HW211237   6.551   0.652   2.275
 3549SOL     OW11238   5.672   0.817   2.638
 3549SOL    HW111239   5.757   0.808   2.679
 3549SOL    HW211240   5.636   0.898   2.675
 3550SOL     OW11241   5.717   1.828   3.439
 3550SOL    HW111242   5.700   1.805   3.530
 3550SOL    HW211243   5.630   1.848   3.403
 3551SOL     OW11244   6.463   0.345   2.059
 3551SOL    HW111245   6.512   0.404   2.002
 3551SOL    HW211246   6.476   0.258   2.021
 3552SOL     OW11247   6.956   1.144   2.406
 3552SOL    HW111248   7.033   1.124   2.353
 3552SOL    HW211249   6.906   1.206   2.353
 3553SOL     OW11250   6.131   0.196   2.746
 3553SOL    HW111251   6.138   0.203   2.841
 3553SOL    HW211252   6.140   0.286   2.714
 3554SOL     OW11253   6.597   1.449   2.338
 3554SOL    HW111254   6.553   1.519   2.290
 3554SOL    HW211255   6.588   1.474   2.430
 3555SOL     OW11256   5.938   1.803   2.714
 3555SOL    HW111257   5.986   1.720   2.725
 3555SOL    HW211258   6.006   1.870   2.723
 3556SOL     OW11259   7.389   1.070   2.732
 3556SOL    HW111260   7.328   1.051   2.661
 3556SOL    HW211261   7.334   1.075   2.810
 3557SOL     OW11262   6.818   1.538   3.353
 3557SOL    HW111263   6.816   1.461   3.410
 3557SOL    HW211264   6.753   1.519   3.285
 3558SOL     OW11265   5.907   0.951   2.105
 3558SOL    HW111266   5.990   0.974   2.062
 3558SOL    HW211267   5.880   0.869   2.063
 3559SOL     OW11268   7.054   0.734   2.589
 3559SOL    HW111269   7.043   0.683   2.669
 3559SOL    HW211270   7.128   0.791   2.607
 3560SOL     OW11271   6.705   1.776   2.097
 3560SOL    HW111272   6.636   1.727   2.143
 3560SOL    HW211273   6.723   1.723   2.019
 3561SOL     OW11274   5.794   0.300   3.344
 3561SOL    HW111275   5.713   0.349   3.331
 3561SOL    HW211276   5.776   0.244   3.420
 3562SOL     OW11277   7.225   1.376   1.948
 3562SOL    HW111278   7.185   1.462   1.935
 3562SOL    HW211279   7.154   1.314   1.932
 3563SOL     OW11280   6.053   1.740   2.184
 3563SOL    HW111281   6.088   1.791   2.257
 3563SOL    HW211282   6.128   1.725   2.127
 3564SOL     OW11283   6.984   0.114   2.290
 3564SOL    HW111284   6.971   0.084   2.200
 3564SOL    HW211285   7.079   0.121   2.299
 3565SOL     OW11286   5.838   1.790   3.099
 3565SOL    HW111287   5.891   1.725   3.146
 3565SOL    HW211288   5.825   1.751   3.012
 3566SOL     OW11289   6.526   1.698   2.765
 3566SOL    HW111290   6.601   1.642   2.783
 3566SOL    HW211291   6.478   1.652   2.696
 3567SOL     OW11292   5.972   0.697   2.342
 3567SOL    HW111293   6.003   0.607   2.345
 3567SOL    HW211294   5.879   0.692   2.365
 3568SOL     OW11295   6.212   0.145   1.963
 3568SOL    HW111296   6.276   0.081   1.994
 3568SOL    HW211297   6.171   0.103   1.888
 3569SOL     OW11298   6.467   1.518   3.056
 3569SOL    HW111299   6.451   1.485   2.967
 3569SOL    HW211300   6.531   1.458   3.092
 3570SOL     OW11301   6.929   0.588   3.301
 3570SOL    HW111302   6.969   0.560   3.384
 3570SOL    HW211303   6.964   0.677   3.288
 3571SOL     OW11304   6.394   1.403   2.792
 3571SOL    HW111305   6.478   1.401   2.746
 3571SOL    HW211306   6.328   1.396   2.723
 3572SOL     OW11307   6.511   0.507   2.765
 3572SOL    HW111308   6.487   0.496   2.673
 3572SOL    HW211309   6.549   0.423   2.790
 3573SOL     OW11310   6.133   0.061   2.371
 3573SOL    HW111311   6.050   0.059   2.420
 3573SOL    HW211312   6.127   0.139   2.316
 3574SOL     OW11313   7.016   1.194   1.901
 3574SOL    HW111314   7.048   1.121   1.954
 3574SOL    HW211315   6.930   1.215   1.938
 3575SOL     OW11316   5.889   0.046   2.048
 3575SOL    HW111317   5.947   0.116   2.019
 3575SOL    HW211318   5.949  -0.022   2.080
 3576SOL     OW11319   6.521   0.242   2.334
 3576SOL    HW111320   6.486   0.284   2.255
 3576SOL    HW211321   6.616   0.250   2.326
 3577SOL     OW11322   6.665   0.678   3.323
 3577SOL    HW111323   6.592   0.616   3.321
 3577SOL    HW211324   6.743   0.624   3.309
 3578SOL     OW11325   6.812   1.569   2.655
 3578SOL    HW111326   6.833   1.639   2.593
 3578SOL    HW211327   6.879   1.576   2.723
 3579SOL     OW11328   6.050   1.146   2.603
 3579SOL    HW111329   5.976   1.128   2.662
 3579SOL    HW211330   6.015   1.127   2.516
 3580SOL     OW11331   6.859   1.797   2.461
 3580SOL    HW111332   6.899   1.859   2.400
 3580SOL    HW211333   6.801   1.849   2.515
 3581SOL     OW11334   6.617   0.549   1.877
 3581SOL    HW111335   6.575   0.632   1.853
 3581SOL    HW211336   6.676   0.572   1.948
 3582SOL     OW11337   5.660   0.554   3.253
 3582SOL    HW111338   5.750   0.554   3.220
 3582SOL    HW211339   5.659   0.626   3.316
 3583SOL     OW11340   6.151   0.228   3.019
 3583SOL    HW111341   6.184   0.145   3.052
 3583SOL    HW211342   6.061   0.232   3.050
 3584SOL     OW11343   6.457   0.459   2.503
 3584SOL    HW111344   6.413   0.516   2.440
 3584SOL    HW211345   6.473   0.378   2.454
 3585SOL     OW11346   6.596   0.048   2.625
 3585SOL    HW111347   6.536   0.047   2.550
 3585SOL    HW211348   6.579  -0.035   2.670
 3586SOL     OW11349   7.019   1.167   2.723
 3586SOL    HW111350   6.957   1.094   2.719
 3586SOL    HW211351   7.039   1.187   2.631
 3587SOL     OW11352   7.056   0.596   2.850
 3587SOL    HW111353   7.016   0.510   2.856
 3587SOL    HW211354   7.120   0.599   2.920
 3588SOL     OW11355   7.443   0.830   2.240
 3588SOL    HW111356   7.493   0.770   2.295
 3588SOL    HW211357   7.408   0.775   2.170
 3589SOL     OW11358   6.080   1.401   2.030
 3589SOL    HW111359   6.001   1.375   2.078
 3589SOL    HW211360   6.052   1.402   1.938
 3590SOL     OW11361   7.257   1.270   2.515
 3590SOL    HW111362   7.350   1.283   2.534
 3590SOL    HW211363   7.216   1.354   2.538
 3591SOL     OW11364   6.978   0.572   1.934
 3591SOL    HW111365   6.923   0.554   2.010
 3591SOL    HW211366   7.064   0.539   1.958
 3592SOL     OW11367   6.111   0.261   2.187
 3592SOL    HW111368   6.148   0.210   2.115
 3592SOL    HW211369   6.103   0.350   2.152
 3593SOL     OW11370   7.351   1.221   3.428
 3593SOL    HW111371   7.443   1.197   3.438
 3593SOL    HW211372   7.344   1.306   3.470
 3594SOL     OW11373   6.654   1.352   3.201
 3594SOL    HW111374   6.576   1.321   3.248
 3594SOL    HW211375   6.727   1.308   3.244
 3595SOL     OW11376   6.704   1.199   2.969
 3595SOL    HW111377   6.650   1.239   3.037
 3595SOL    HW211378   6.667   1.230   2.886
 3596SOL     OW11379   7.221   1.101   2.941
 3596SOL    HW111380   7.220   1.168   3.009
 3596SOL    HW211381   7.138   1.112   2.895
 3597SOL     OW11382   6.499   0.099   3.268
 3597SOL    HW111383   6.519   0.074   3.178
 3597SOL    HW211384   6.580   0.138   3.301
 3598SOL     OW11385   6.293   1.057   2.234
 3598SOL    HW111386   6.280   1.048   2.328
 3598SOL    HW211387   6.370   1.004   2.215
 3599SOL     OW11388   6.000   0.812   3.112
 3599SOL    HW111389   6.071   0.823   3.174
 3599SOL    HW211390   5.962   0.727   3.134
 3600SOL     OW11391   6.858   0.381   3.130
 3600SOL    HW111392   6.884   0.459   3.180
 3600SOL    HW211393   6.771   0.403   3.096
 3601SOL     OW11394   5.652   1.572   3.197
 3601SOL    HW111395   5.617   1.650   3.153
 3601SOL    HW211396   5.746   1.586   3.199
 3602SOL     OW11397   5.947   1.102   2.358
 3602SOL    HW111398   5.946   1.177   2.299
 3602SOL    HW211399   5.949   1.026   2.300
 3603SOL     OW11400   6.146   0.538   2.725
 3603SOL    HW111401   6.164   0.598   2.653
 3603SOL    HW211402   6.201   0.571   2.797
 3604SOL     OW11403   6.834   1.347   2.252
 3604SOL    HW111404   6.886   1.421   2.284
 3604SOL    HW211405   6.746   1.363   2.285
 3605SOL     OW11406   6.857   1.452   3.006
 3605SOL    HW111407   6.909   1.456   3.086
 3605SOL    HW211408   6.802   1.374   3.016
 3606SOL     OW11409   7.170   0.632   2.336
 3606SOL    HW111410   7.133   0.693   2.400
 3606SOL    HW211411   7.214   0.688   2.272
 3607SOL     OW11412   5.937   1.517   3.186
 3607SOL    HW111413   5.921   1.474   3.102
 3607SOL    HW211414   6.031   1.533   3.188
 3608SOL     OW11415   5.988   0.748   3.463
 3608SOL    HW111416   6.052   0.800   3.414
 3608SOL    HW211417   6.034   0.667   3.483
 3609SOL     OW11418   7.177   0.767   3.525
 3609SOL    HW111419   7.099   0.821   3.538
 3609SOL    HW211420   7.238   0.822   3.477
 3610SOL     OW11421   6.166   0.870   2.893
 3610SOL    HW111422   6.198   0.960   2.887
 3610SOL    HW211423   6.107   0.871   2.968
 3611SOL     OW11424   6.948   0.861   2.901
 3611SOL    HW111425   6.871   0.857   2.845
 3611SOL    HW211426   6.980   0.771   2.906
 3612SOL     OW11427   6.798   0.529   2.135
 3612SOL    HW111428   6.803   0.450   2.189
 3612SOL    HW211429   6.758   0.594   2.193
 3613SOL     OW11430   5.894   0.209   3.101
 3613SOL    HW111431   5.862   0.246   3.184
 3613SOL    HW211432   5.863   0.119   3.102
 3614SOL     OW11433   5.633   1.308   3.139
 3614SOL    HW111434   5.667   1.261   3.215
 3614SOL    HW211435   5.640   1.401   3.163
 3615SOL     OW11436   6.316   0.634   2.926
 3615SOL    HW111437   6.381   0.613   2.858
 3615SOL    HW211438   6.288   0.723   2.904
 3616SOL     OW11439   5.884   0.062   2.486
 3616SOL    HW111440   5.878   0.152   2.516
 3616SOL    HW211441   5.891   0.010   2.566
 3617SOL     OW11442   7.195   0.368   2.233
 3617SOL    HW111443   7.221   0.305   2.300
 3617SOL    HW211444   7.170   0.446   2.282
 3618SOL     OW11445   6.611   0.762   2.827
 3618SOL    HW111446   6.618   0.780   2.921
 3618SOL    HW211447   6.584   0.671   2.821
 3619SOL     OW11448   7.444   1.500   3.447
 3619SOL    HW111449   7.470   1.538   3.363
 3619SOL    HW211450   7.500   1.544   3.511
 3620SOL     OW11451   7.120   0.273   1.988
 3620SOL    HW111452   7.057   0.207   2.018
 3620SOL    HW211453   7.151   0.315   2.069
 3621SOL     OW11454   6.885   0.830   1.900
 3621SOL    HW111455   6.925   0.744   1.904
 3621SOL    HW211456   6.912   0.865   1.814
 3622SOL     OW11457   6.651   1.334   2.712
 3622SOL    HW111458   6.656   1.259   2.653
 3622SOL    HW211459   6.715   1.396   2.678
 3623SOL     OW11460   5.900   0.812   2.812
 3623SOL    HW111461   5.993   0.835   2.810
 3623SOL    HW211462   5.898   0.726   2.853
 3624SOL     OW11463   5.922   0.516   2.870
 3624SOL    HW111464   5.883   0.430   2.852
 3624SOL    HW211465   5.997   0.521   2.811
 3625SOL     OW11466   6.736   0.214   3.339
 3625SOL    HW111467   6.753   0.276   3.410
 3625SOL    HW211468   6.775   0.253   3.262
 3626SOL     OW11469   5.591   1.325   2.058
 3626SOL    HW111470   5.503   1.338   2.023
 3626SOL    HW211471   5.593   1.233   2.085
 3627SOL     OW11472   5.676   1.795   2.794
 3627SOL    HW111473   5.642   1.713   2.756
 3627SOL    HW211474   5.765   1.802   2.762
 3628SOL     OW11475   6.088   1.572   2.766
 3628SOL    HW111476   6.157   1.635   2.788
 3628SOL    HW211477   6.134   1.500   2.722
 3629SOL     OW11478   6.582   0.797   3.093
 3629SOL    HW111479   6.626   0.768   3.173
 3629SOL    HW211480   6.492   0.764   3.103
 3630SOL     OW11481   5.623   0.538   2.978
 3630SOL    HW111482   5.708   0.521   2.935
 3630SOL    HW211483   5.646   0.553   3.070
 3631SOL     OW11484   6.400   0.569   2.206
 3631SOL    HW111485   6.403   0.492   2.149
 3631SOL    HW211486   6.320   0.614   2.180
 3632SOL     OW11487   7.238   0.598   3.053
 3632SOL    HW111488   7.218   0.540   3.127
 3632SOL    HW211489   7.327   0.574   3.027
 3633SOL     OW11490   5.869   1.555   0.059
 3633SOL    HW111491   5.810   1.614   0.107
 3633SOL    HW211492   5.835   1.468   0.075
 3634SOL     OW11493   6.272   0.459   3.129
 3634SOL    HW111494   6.226   0.381   3.096
 3634SOL    HW211495   6.277   0.517   3.053
 3635SOL     OW11496   6.525   1.675   3.330
 3635SOL    HW111497   6.493   1.651   3.243
 3635SOL    HW211498   6.532   1.770   3.328
 3636SOL     OW11499   6.057   0.496   2.051
 3636SOL    HW111500   6.113   0.572   2.066
 3636SOL    HW211501   5.968   0.531   2.050
 3637SOL     OW11502   5.743   1.139   3.330
 3637SOL    HW111503   5.752   1.079   3.404
 3637SOL    HW211504   5.755   1.083   3.253
 3638SOL     OW11505   6.922   1.054   3.093
 3638SOL    HW111506   6.949   0.994   3.023
 3638SOL    HW211507   6.844   1.097   3.059
 3639SOL     OW11508   6.891   0.853   2.171
 3639SOL    HW111509   6.809   0.826   2.214
 3639SOL    HW211510   6.874   0.843   2.078
 3640SOL     OW11511   7.345   1.751   3.010
 3640SOL    HW111512   7.409   1.772   2.942
 3640SOL    HW211513   7.323   1.659   2.994
 3641SOL     OW11514   6.831   1.732   2.984
 3641SOL    HW111515   6.913   1.743   2.936
 3641SOL    HW211516   6.826   1.638   3.002
 3642SOL     OW11517   5.670   1.262   2.879
 3642SOL    HW111518   5.659   1.269   2.974
 3642SOL    HW211519   5.592   1.215   2.849
 3643SOL     OW11520   7.301   0.130   2.362
 3643SOL    HW111521   7.389   0.119   2.327
 3643SOL    HW211522   7.292   0.060   2.426
 3644SOL     OW11523   6.976   1.569   2.342
 3644SOL    HW111524   7.036   1.595   2.272
 3644SOL    HW211525   6.932   1.650   2.367
 3645SOL     OW11526   6.863   0.923   2.533
 3645SOL    HW111527   6.934   0.858   2.535
 3645SOL    HW211528   6.898   0.995   2.481
 3646SOL     OW11529   6.412   1.271   3.290
 3646SOL    HW111530   6.398   1.303   3.379
 3646SOL    HW211531   6.332   1.294   3.243
 3647SOL     OW11532   6.258   1.614   2.017
 3647SOL    HW111533   6.266   1.623   1.922
 3647SOL    HW211534   6.212   1.531   2.029
 3648SOL     OW11535   7.226   1.721   3.261
 3648SOL    HW111536   7.275   1.731   3.179
 3648SOL    HW211537   7.211   1.811   3.290
 3649SOL     OW11538   5.854   0.320   2.582
 3649SOL    HW111539   5.772   0.360   2.554
 3649SOL    HW211540   5.845   0.310   2.676
 3650SOL     OW11541   6.787   1.610   1.893
 3650SOL    HW111542   6.783   1.519   1.922
 3650SOL    HW211543   6.724   1.616   1.821
 3651SOL     OW11544   6.408   1.005   3.231
 3651SOL    HW111545   6.450   1.005   3.145
 3651SOL    HW211546   6.414   1.096   3.261
 3652SOL     OW11547   6.502   0.910   2.151
 3652SOL    HW111548   6.564   0.942   2.086
 3652SOL    HW211549   6.545   0.835   2.192
 3653SOL     OW11550   7.089   1.621   1.905
 3653SOL    HW111551   6.994   1.629   1.902
 3653SOL    HW211552   7.117   1.628   1.813
 3654SOL     OW11553   5.958   1.299   3.367
 3654SOL    HW111554   5.946   1.376   3.312
 3654SOL    HW211555   5.884   1.242   3.346
 3655SOL     OW11556   7.208   1.288   3.147
 3655SOL    HW111557   7.257   1.282   3.229
 3655SOL    HW211558   7.142   1.355   3.163
 3656SOL     OW11559   6.628   1.101   2.564
 3656SOL    HW111560   6.560   1.050   2.607
 3656SOL    HW211561   6.686   1.036   2.525
 3657SOL     OW11562   6.606   0.240   2.827
 3657SOL    HW111563   6.594   0.194   2.744
 3657SOL    HW211564   6.594   0.173   2.894
 3658SOL     OW11565   6.184   1.490   2.348
 3658SOL    HW111566   6.218   1.435   2.277
 3658SOL    HW211567   6.127   1.553   2.304
 3659SOL     OW11568   7.296   0.391   3.240
 3659SOL    HW111569   7.366   0.455   3.254
 3659SOL    HW211570   7.335   0.321   3.189
 3660SOL     OW11571   5.842   1.351   2.147
 3660SOL    HW111572   5.749   1.348   2.128
 3660SOL    HW211573   5.848   1.388   2.235
 3661SOL     OW11574   5.700   0.999   0.026
 3661SOL    HW111575   5.621   0.993   0.080
 3661SOL    HW211576   5.773   0.991   0.088
 3662SOL     OW11577   6.256   0.204   3.355
 3662SOL    HW111578   6.339   0.179   3.315
 3662SOL    HW211579   6.277   0.217   3.448
 3663SOL     OW11580   5.660   0.349   1.902
 3663SOL    HW111581   5.578   0.317   1.864
 3663SOL    HW211582   5.688   0.419   1.843
 3664SOL     OW11583   7.019   0.851   3.262
 3664SOL    HW111584   6.972   0.913   3.207
 3664SOL    HW211585   7.111   0.863   3.240
 3665SOL     OW11586   5.651   0.159   2.177
 3665SOL    HW111587   5.644   0.241   2.128
 3665SOL    HW211588   5.740   0.128   2.158
 3666SOL     OW11589   6.768   1.343   1.979
 3666SOL    HW111590   6.676   1.318   1.985
 3666SOL    HW211591   6.798   1.343   2.070
 3667SOL     OW11592   6.201   0.836   3.292
 3667SOL    HW111593   6.257   0.913   3.278
 3667SOL    HW211594   6.262   0.763   3.300
 3668SOL     OW11595   7.075   1.770   2.828
 3668SOL    HW111596   7.107   1.828   2.760
 3668SOL    HW211597   7.149   1.761   2.889
 3669SOL     OW11598   6.308   0.570   0.018
 3669SOL    HW111599   6.318   0.627   0.094
 3669SOL    HW211600   6.353   0.490   0.042
 3670SOL     OW11601   5.975   1.739   3.421
 3670SOL    HW111602   5.889   1.782   3.418
 3670SOL    HW211603   5.958   1.655   3.464
 3671SOL     OW11604   7.259   0.883   3.118
 3671SOL    HW111605   7.244   0.799   3.076
 3671SOL    HW211606   7.255   0.947   3.046
 3672SOL     OW11607   6.808   0.322   2.316
 3672SOL    HW111608   6.872   0.251   2.309
 3672SOL    HW211609   6.833   0.369   2.396
 3673SOL     OW11610   6.180   0.744   2.522
 3673SOL    HW111611   6.221   0.828   2.504
 3673SOL    HW211612   6.103   0.741   2.464
 3674SOL     OW11613   7.330   0.934   3.377
 3674SOL    HW111614   7.336   1.029   3.389
 3674SOL    HW211615   7.313   0.923   3.283
 3675SOL     OW11616   6.448   1.371   1.885
 3675SOL    HW111617   6.406   1.393   1.968
 3675SOL    HW211618   6.474   1.455   1.848
 3676SOL     OW11619   6.244   1.795   2.816
 3676SOL    HW111620   6.216   1.883   2.791
 3676SOL    HW211621   6.339   1.796   2.804
 3677SOL     OW11622   6.449   0.961   2.720
 3677SOL    HW111623   6.500   0.893   2.765
 3677SOL    HW211624   6.419   1.018   2.790
 3678SOL     OW11625   6.666   0.985   1.950
 3678SOL    HW111626   6.647   1.036   1.871
 3678SOL    HW211627   6.744   0.935   1.927
 3679SOL     OW11628   7.452   1.569   2.712
 3679SOL    HW111629   7.378   1.559   2.652
 3679SOL    HW211630   7.442   1.498   2.775
 3680SOL     OW11631   5.668   1.239   2.521
 3680SOL    HW111632   5.668   1.189   2.602
 3680SOL    HW211633   5.741   1.203   2.471
 3681SOL     OW11634   6.238   1.393   3.467
 3681SOL    HW111635   6.176   1.340   3.516
 3681SOL    HW211636   6.240   1.478   3.512
 3682SOL     OW11637   7.436   0.214   3.104
 3682SOL    HW111638   7.403   0.127   3.126
 3682SOL    HW211639   7.423   0.222   3.010
 3683SOL     OW11640   6.014   0.430   2.383
 3683SOL    HW111641   6.043   0.357   2.328
 3683SOL    HW211642   5.974   0.388   2.459
 3684SOL     OW11643   7.291   1.492   2.967
 3684SOL    HW111644   7.207   1.463   2.930
 3684SOL    HW211645   7.309   1.430   3.038
 3685SOL     OW11646   5.907   0.548   3.148
 3685SOL    HW111647   5.959   0.494   3.208
 3685SOL    HW211648   5.938   0.523   3.061
 3686SOL     OW11649   6.406   1.578   2.546
 3686SOL    HW111650   6.415   1.608   2.456
 3686SOL    HW211651   6.325   1.528   2.548
 3687SOL     OW11652   7.018   0.219   2.978
 3687SOL    HW111653   7.062   0.154   3.033
 3687SOL    HW211654   6.965   0.270   3.040
 3688SOL     OW11655   6.575   0.037   3.009
 3688SOL    HW111656   6.532  -0.048   3.002
 3688SOL    HW211657   6.668   0.017   3.010
 3689SOL     OW11658   6.357   1.331   2.166
 3689SOL    HW111659   6.318   1.244   2.177
 3689SOL    HW211660   6.441   1.326   2.212
 3690SOL     OW11661   6.205   1.564   3.144
 3690SOL    HW111662   6.208   1.643   3.198
 3690SOL    HW211663   6.292   1.558   3.105
 3691SOL     OW11664   6.943   0.049   2.027
 3691SOL    HW111665   6.964   0.012   1.941
 3691SOL    HW211666   6.852   0.024   2.043
 3692SOL     OW11667   6.885   0.457   2.548
 3692SOL    HW111668   6.829   0.534   2.558
 3692SOL    HW211669   6.888   0.419   2.636
 3693SOL     OW11670   7.182   0.215   2.741
 3693SOL    HW111671   7.108   0.225   2.801
 3693SOL    HW211672   7.180   0.294   2.688
 3694SOL     OW11673   5.628   1.076   2.164
 3694SOL    HW111674   5.722   1.065   2.151
 3694SOL    HW211675   5.596   0.990   2.189
 3695SOL     OW11676   6.462   1.644   2.208
 3695SOL    HW111677   6.392   1.625   2.146
 3695SOL    HW211678   6.432   1.723   2.255
 3696SOL     OW11679   5.817   2.478   0.130
 3696SOL    HW111680   5.725   2.486   0.153
 3696SOL    HW211681   5.817   2.458   0.037
 3697SOL     OW11682   5.597   2.243   0.635
 3697SOL    HW111683   5.517   2.265   0.683
 3697SOL    HW211684   5.577   2.160   0.591
 3698SOL     OW11685   6.153   3.138   1.168
 3698SOL    HW111686   6.064   3.140   1.131
 3698SOL    HW211687   6.166   3.225   1.205
 3699SOL     OW11688   7.140   3.373   0.702
 3699SOL    HW111689   7.092   3.359   0.784
 3699SOL    HW211690   7.072   3.380   0.635
 3700SOL     OW11691   6.715   2.563   0.710
 3700SOL    HW111692   6.769   2.640   0.693
 3700SOL    HW211693   6.668   2.584   0.790
 3701SOL     OW11694   7.349   2.468   0.232
 3701SOL    HW111695   7.320   2.465   0.141
 3701SOL    HW211696   7.311   2.391   0.273
 3702SOL     OW11697   6.349   3.007   1.031
 3702SOL    HW111698   6.278   3.037   1.087
 3702SOL    HW211699   6.381   3.087   0.989
 3703SOL     OW11700   6.440   2.653   1.821
 3703SOL    HW111701   6.433   2.725   1.883
 3703SOL    HW211702   6.464   2.695   1.738
 3704SOL     OW11703   6.272   2.875   0.655
 3704SOL    HW111704   6.335   2.856   0.725
 3704SOL    HW211705   6.202   2.923   0.699
 3705SOL     OW11706   6.286   3.017   1.804
 3705SOL    HW111707   6.334   3.097   1.824
 3705SOL    HW211708   6.201   3.048   1.772
 3706SOL     OW11709   5.918   3.296   1.067
 3706SOL    HW111710   5.848   3.262   1.011
 3706SOL    HW211711   5.973   3.347   1.007
 3707SOL     OW11712   7.048   3.361   1.344
 3707SOL    HW111713   7.077   3.450   1.360
 3707SOL    HW211714   7.014   3.331   1.428
 3708SOL     OW11715   6.020   2.251   1.497
 3708SOL    HW111716   6.103   2.204   1.503
 3708SOL    HW211717   5.955   2.187   1.525
 3709SOL     OW11718   7.193   2.310   0.738
 3709SOL    HW111719   7.121   2.348   0.688
 3709SOL    HW211720   7.231   2.384   0.786
 3710SOL     OW11721   5.809   3.574   0.478
 3710SOL    HW111722   5.838   3.650   0.529
 3710SOL    HW211723   5.868   3.571   0.403
 3711SOL     OW11724   6.719   3.202   1.689
 3711SOL    HW111725   6.759   3.201   1.776
 3711SOL    HW211726   6.666   3.123   1.685
 3712SOL     OW11727   5.815   3.299   0.535
 3712SOL    HW111728   5.795   3.393   0.541
 3712SOL    HW211729   5.748   3.257   0.588
 3713SOL     OW11730   5.830   2.951   0.885
 3713SOL    HW111731   5.837   2.870   0.936
 3713SOL    HW211732   5.778   3.009   0.941
 3714SOL     OW11733   6.205   3.651   1.435
 3714SOL    HW111734   6.120   3.636   1.477
 3714SOL    HW211735   6.228   3.740   1.459
 3715SOL     OW11736   6.182   2.832   0.135
 3715SOL    HW111737   6.202   2.897   0.068
 3715SOL    HW211738   6.235   2.857   0.211
 3716SOL     OW11739   7.181   1.978   1.473
 3716SOL    HW111740   7.167   2.052   1.415
 3716SOL    HW211741   7.176   2.014   1.561
 3717SOL     OW11742   5.704   2.509   0.562
 3717SOL    HW111743   5.669   2.422   0.579
 3717SOL    HW211744   5.693   2.556   0.645
 3718SOL     OW11745   7.436   3.630   0.346
 3718SOL    HW111746   7.478   3.602   0.427
 3718SOL    HW211747   7.475   3.716   0.327
 3719SOL     OW11748   5.614   3.472   0.140
 3719SOL    HW111749   5.587   3.381   0.152
 3719SOL    HW211750   5.580   3.517   0.218
 3720SOL     OW11751   7.277   2.779   0.628
 3720SOL    HW111752   7.368   2.752   0.617
 3720SOL    HW211753   7.259   2.834   0.551
 3721SOL     OW11754   7.232   2.967   0.434
 3721SOL    HW111755   7.311   2.983   0.383
 3721SOL    HW211756   7.238   3.028   0.508
 3722SOL     OW11757   5.704   2.602   1.590
 3722SOL    HW111758   5.793   2.607   1.624
 3722SOL    HW211759   5.673   2.692   1.589
 3723SOL     OW11760   6.198   3.237   0.733
 3723SOL    HW111761   6.152   3.153   0.739
 3723SOL    HW211762   6.179   3.268   0.644
 3724SOL     OW11763   6.879   3.099   1.424
 3724SOL    HW111764   6.912   3.030   1.368
 3724SOL    HW211765   6.930   3.091   1.505
 3725SOL     OW11766   6.394   1.860   0.500
 3725SOL    HW111767   6.435   1.947   0.493
 3725SOL    HW211768   6.301   1.879   0.513
 3726SOL     OW11769   5.795   2.845   1.263
 3726SOL    HW111770   5.877   2.795   1.253
 3726SOL    HW211771   5.726   2.780   1.251
 3727SOL     OW11772   7.111   2.859   0.195
 3727SOL    HW111773   7.049   2.790   0.218
 3727SOL    HW211774   7.154   2.882   0.277
 3728SOL     OW11775   6.769   3.660   1.616
 3728SOL    HW111776   6.794   3.716   1.542
 3728SOL    HW211777   6.784   3.571   1.586
 3729SOL     OW11778   5.912   2.115   1.800
 3729SOL    HW111779   5.965   2.193   1.818
 3729SOL    HW211780   5.824   2.138   1.832
 3730SOL     OW11781   7.050   3.282   0.954
 3730SOL    HW111782   6.985   3.291   1.023
 3730SOL    HW211783   7.039   3.192   0.923
 3731SOL     OW11784   7.253   3.584   0.575
 3731SOL    HW111785   7.219   3.559   0.489
 3731SOL    HW211786   7.227   3.512   0.633
 3732SOL     OW11787   6.183   2.588   0.262
 3732SOL    HW111788   6.195   2.666   0.207
 3732SOL    HW211789   6.117   2.614   0.326
 3733SOL     OW11790   6.868   2.206   0.934
 3733SOL    HW111791   6.780   2.167   0.937
 3733SOL    HW211792   6.918   2.156   0.998
 3734SOL     OW11793   7.167   3.529   0.309
 3734SOL    HW111794   7.255   3.566   0.303
 3734SOL    HW211795   7.146   3.504   0.219
 3735SOL     OW11796   6.384   2.476   1.458
 3735SOL    HW111797   6.353   2.458   1.546
 3735SOL    HW211798   6.339   2.413   1.402
 3736SOL     OW11799   6.979   2.334   1.677
 3736SOL    HW111800   6.974   2.377   1.762
 3736SOL    HW211801   7.049   2.269   1.687
 3737SOL     OW11802   6.550   2.752   1.578
 3737SOL    HW111803   6.602   2.679   1.546
 3737SOL    HW211804   6.503   2.783   1.500
 3738SOL     OW11805   6.579   2.276   1.241
 3738SOL    HW111806   6.500   2.300   1.288
 3738SOL    HW211807   6.547   2.224   1.166
 3739SOL     OW11808   6.633   2.562   0.429
 3739SOL    HW111809   6.647   2.556   0.523
 3739SOL    HW211810   6.551   2.515   0.413
 3740SOL     OW11811   5.671   2.678   0.777
 3740SOL    HW111812   5.758   2.669   0.816
 3740SOL    HW211813   5.638   2.761   0.812
 3741SOL     OW11814   5.715   3.687   1.573
 3741SOL    HW111815   5.708   3.673   1.667
 3741SOL    HW211816   5.627   3.713   1.546
 3742SOL     OW11817   6.454   2.216   0.189
 3742SOL    HW111818   6.523   2.263   0.142
 3742SOL    HW211819   6.468   2.124   0.167
 3743SOL     OW11820   7.301   2.444   1.830
 3743SOL    HW111821   7.270   2.524   1.789
 3743SOL    HW211822   7.313   2.383   1.758
 3744SOL     OW11823   6.956   3.006   0.544
 3744SOL    HW111824   7.033   2.985   0.491
 3744SOL    HW211825   6.906   3.068   0.490
 3745SOL     OW11826   6.133   2.052   0.892
 3745SOL    HW111827   6.129   2.070   0.986
 3745SOL    HW211828   6.142   2.139   0.852
 3746SOL     OW11829   6.596   3.312   0.476
 3746SOL    HW111830   6.552   3.382   0.428
 3746SOL    HW211831   6.588   3.337   0.568
 3747SOL     OW11832   5.938   3.664   0.852
 3747SOL    HW111833   5.987   3.582   0.863
 3747SOL    HW211834   6.005   3.733   0.861
 3748SOL     OW11835   7.389   2.932   0.870
 3748SOL    HW111836   7.328   2.913   0.799
 3748SOL    HW211837   7.334   2.936   0.948
 3749SOL     OW11838   6.814   3.407   1.509
 3749SOL    HW111839   6.807   3.333   1.569
 3749SOL    HW211840   6.757   3.384   1.435
 3750SOL     OW11841   5.901   2.813   0.225
 3750SOL    HW111842   5.990   2.834   0.196
 3750SOL    HW211843   5.891   2.720   0.206
 3751SOL     OW11844   7.054   2.595   0.727
 3751SOL    HW111845   7.043   2.545   0.808
 3751SOL    HW211846   7.128   2.653   0.745
 3752SOL     OW11847   6.048   3.124   1.735
 3752SOL    HW111848   6.014   3.130   1.646
 3752SOL    HW211849   5.971   3.120   1.791
 3753SOL     OW11850   6.690   3.646   0.234
 3753SOL    HW111851   6.637   3.589   0.290
 3753SOL    HW211852   6.722   3.587   0.165
 3754SOL     OW11853   7.223   3.239   0.096
 3754SOL    HW111854   7.184   3.324   0.076
 3754SOL    HW211855   7.156   3.175   0.070
 3755SOL     OW11856   6.053   3.600   0.324
 3755SOL    HW111857   6.087   3.654   0.396
 3755SOL    HW211858   6.127   3.590   0.265
 3756SOL     OW11859   6.987   1.970   0.428
 3756SOL    HW111860   6.972   1.943   0.337
 3756SOL    HW211861   7.082   1.980   0.434
 3757SOL     OW11862   5.836   3.651   1.237
 3757SOL    HW111863   5.891   3.589   1.285
 3757SOL    HW211864   5.827   3.613   1.149
 3758SOL     OW11865   6.526   3.560   0.903
 3758SOL    HW111866   6.601   3.505   0.921
 3758SOL    HW211867   6.478   3.514   0.834
 3759SOL     OW11868   5.971   2.559   0.480
 3759SOL    HW111869   6.004   2.469   0.482
 3759SOL    HW211870   5.879   2.553   0.503
 3760SOL     OW11871   7.127   2.090   1.725
 3760SOL    HW111872   7.133   2.112   1.818
 3760SOL    HW211873   7.062   2.020   1.721
 3761SOL     OW11874   6.201   1.980   0.114
 3761SOL    HW111875   6.294   1.960   0.120
 3761SOL    HW211876   6.176   1.953   0.026
 3762SOL     OW11877   6.361   2.134   1.750
 3762SOL    HW111878   6.427   2.069   1.775
 3762SOL    HW211879   6.300   2.136   1.824
 3763SOL     OW11880   6.467   3.380   1.193
 3763SOL    HW111881   6.451   3.347   1.105
 3763SOL    HW211882   6.531   3.321   1.231
 3764SOL     OW11883   6.930   2.451   1.432
 3764SOL    HW111884   6.961   2.416   1.516
 3764SOL    HW211885   6.964   2.541   1.430
 3765SOL     OW11886   6.394   3.265   0.930
 3765SOL    HW111887   6.478   3.263   0.884
 3765SOL    HW211888   6.328   3.258   0.860
 3766SOL     OW11889   6.510   2.369   0.903
 3766SOL    HW111890   6.487   2.358   0.811
 3766SOL    HW211891   6.550   2.286   0.928
 3767SOL     OW11892   6.133   1.925   0.510
 3767SOL    HW111893   6.051   1.926   0.560
 3767SOL    HW211894   6.128   2.003   0.455
 3768SOL     OW11895   7.012   3.059   0.033
 3768SOL    HW111896   7.050   2.986   0.083
 3768SOL    HW211897   6.927   3.075   0.075
 3769SOL     OW11898   5.879   1.905   0.181
 3769SOL    HW111899   5.937   1.975   0.151
 3769SOL    HW211900   5.937   1.838   0.216
 3770SOL     OW11901   6.520   2.101   0.472
 3770SOL    HW111902   6.486   2.143   0.393
 3770SOL    HW211903   6.615   2.109   0.464
 3771SOL     OW11904   6.665   2.541   1.461
 3771SOL    HW111905   6.592   2.479   1.468
 3771SOL    HW211906   6.742   2.486   1.449
 3772SOL     OW11907   6.811   3.432   0.793
 3772SOL    HW111908   6.834   3.500   0.731
 3772SOL    HW211909   6.879   3.438   0.861
 3773SOL     OW11910   6.049   3.008   0.742
 3773SOL    HW111911   5.975   2.990   0.800
 3773SOL    HW211912   6.015   2.989   0.654
 3774SOL     OW11913   6.858   3.659   0.598
 3774SOL    HW111914   6.899   3.722   0.539
 3774SOL    HW211915   6.801   3.712   0.654
 3775SOL     OW11916   6.606   2.406   0.034
 3775SOL    HW111917   6.588   2.485  -0.017
 3775SOL    HW211918   6.682   2.428   0.088
 3776SOL     OW11919   6.455   2.319   0.641
 3776SOL    HW111920   6.414   2.378   0.578
 3776SOL    HW211921   6.474   2.240   0.592
 3777SOL     OW11922   6.599   1.912   0.756
 3777SOL    HW111923   6.538   1.903   0.683
 3777SOL    HW211924   6.582   1.836   0.811
 3778SOL     OW11925   7.019   3.029   0.861
 3778SOL    HW111926   6.957   2.956   0.856
 3778SOL    HW211927   7.039   3.049   0.769
 3779SOL     OW11928   7.056   2.459   0.988
 3779SOL    HW111929   7.016   2.372   0.995
 3779SOL    HW211930   7.120   2.461   1.059
 3780SOL     OW11931   7.446   2.691   0.376
 3780SOL    HW111932   7.493   2.630   0.434
 3780SOL    HW211933   7.408   2.635   0.309
 3781SOL     OW11934   6.080   3.255   0.160
 3781SOL    HW111935   6.009   3.232   0.220
 3781SOL    HW211936   6.035   3.279   0.078
 3782SOL     OW11937   7.257   3.132   0.654
 3782SOL    HW111938   7.350   3.146   0.671
 3782SOL    HW211939   7.216   3.216   0.676
 3783SOL     OW11940   6.970   2.435   0.071
 3783SOL    HW111941   6.920   2.413   0.151
 3783SOL    HW211942   7.057   2.399   0.087
 3784SOL     OW11943   6.114   2.123   0.327
 3784SOL    HW111944   6.145   2.068   0.254
 3784SOL    HW211945   6.103   2.210   0.288
 3785SOL     OW11946   7.342   3.091   1.578
 3785SOL    HW111947   7.431   3.055   1.581
 3785SOL    HW211948   7.352   3.180   1.612
 3786SOL     OW11949   6.652   3.214   1.337
 3786SOL    HW111950   6.576   3.185   1.387
 3786SOL    HW211951   6.726   3.174   1.381
 3787SOL     OW11952   7.184   3.488   1.643
 3787SOL    HW111953   7.193   3.521   1.553
 3787SOL    HW211954   7.268   3.446   1.661
 3788SOL     OW11955   6.703   3.059   1.106
 3788SOL    HW111956   6.652   3.101   1.175
 3788SOL    HW211957   6.666   3.093   1.025
 3789SOL     OW11958   7.221   2.963   1.079
 3789SOL    HW111959   7.219   3.031   1.146
 3789SOL    HW211960   7.138   2.973   1.032
 3790SOL     OW11961   6.502   1.962   1.401
 3790SOL    HW111962   6.527   1.938   1.312
 3790SOL    HW211963   6.580   2.001   1.439
 3791SOL     OW11964   6.569   2.976   1.719
 3791SOL    HW111965   6.475   2.986   1.734
 3791SOL    HW211966   6.576   2.898   1.664
 3792SOL     OW11967   6.294   2.920   0.373
 3792SOL    HW111968   6.282   2.910   0.467
 3792SOL    HW211969   6.371   2.867   0.353
 3793SOL     OW11970   6.000   2.672   1.252
 3793SOL    HW111971   6.074   2.687   1.310
 3793SOL    HW211972   5.965   2.587   1.279
 3794SOL     OW11973   6.857   2.244   1.267
 3794SOL    HW111974   6.884   2.320   1.318
 3794SOL    HW211975   6.770   2.266   1.235
 3795SOL     OW11976   5.651   3.430   1.335
 3795SOL    HW111977   5.615   3.513   1.304
 3795SOL    HW211978   5.745   3.446   1.342
 3796SOL     OW11979   5.944   2.965   0.496
 3796SOL    HW111980   5.946   3.040   0.437
 3796SOL    HW211981   5.951   2.889   0.439
 3797SOL     OW11982   6.153   2.396   0.860
 3797SOL    HW111983   6.165   2.458   0.789
 3797SOL    HW211984   6.201   2.434   0.934
 3798SOL     OW11985   6.834   3.208   0.391
 3798SOL    HW111986   6.886   3.283   0.423
 3798SOL    HW211987   6.746   3.225   0.423
 3799SOL     OW11988   6.858   3.313   1.144
 3799SOL    HW111989   6.909   3.318   1.225
 3799SOL    HW211990   6.802   3.236   1.155
 3800SOL     OW11991   7.172   2.495   0.475
 3800SOL    HW111992   7.132   2.555   0.538
 3800SOL    HW211993   7.211   2.552   0.409
 3801SOL     OW11994   5.937   3.380   1.324
 3801SOL    HW111995   5.922   3.337   1.239
 3801SOL    HW211996   6.031   3.396   1.327
 3802SOL     OW11997   5.995   2.611   1.599
 3802SOL    HW111998   6.060   2.656   1.545
 3802SOL    HW211999   6.035   2.526   1.618
 3803SOL     OW12000   7.176   2.636   1.674
 3803SOL    HW112001   7.090   2.678   1.667
 3803SOL    HW212002   7.230   2.682   1.609
 3804SOL     OW12003   6.587   1.971   1.763
 3804SOL    HW112004   6.621   2.048   1.718
 3804SOL    HW212005   6.636   1.898   1.726
 3805SOL     OW12006   6.091   1.917   1.745
 3805SOL    HW112007   6.053   1.856   1.682
 3805SOL    HW212008   6.021   1.980   1.762
 3806SOL     OW12009   6.165   2.733   1.030
 3806SOL    HW112010   6.199   2.822   1.025
 3806SOL    HW212011   6.107   2.734   1.106
 3807SOL     OW12012   6.948   2.723   1.039
 3807SOL    HW112013   6.872   2.719   0.982
 3807SOL    HW212014   6.980   2.633   1.043
 3808SOL     OW12015   6.796   2.389   0.274
 3808SOL    HW112016   6.803   2.311   0.329
 3808SOL    HW212017   6.759   2.456   0.332
 3809SOL     OW12018   5.643   3.170   1.276
 3809SOL    HW112019   5.670   3.125   1.356
 3809SOL    HW212020   5.640   3.263   1.300
 3810SOL     OW12021   6.314   2.495   1.062
 3810SOL    HW112022   6.382   2.475   0.997
 3810SOL    HW212023   6.289   2.585   1.043
 3811SOL     OW12024   7.321   2.817   1.851
 3811SOL    HW112025   7.272   2.779   1.778
 3811SOL    HW212026   7.256   2.831   1.920
 3812SOL     OW12027   5.889   1.930   0.622
 3812SOL    HW112028   5.871   2.018   0.652
 3812SOL    HW212029   5.886   1.876   0.701
 3813SOL     OW12030   7.197   2.231   0.371
 3813SOL    HW112031   7.221   2.166   0.438
 3813SOL    HW212032   7.170   2.308   0.421
 3814SOL     OW12033   6.610   2.625   0.965
 3814SOL    HW112034   6.618   2.642   1.059
 3814SOL    HW212035   6.584   2.533   0.959
 3815SOL     OW12036   6.568   3.429   1.709
 3815SOL    HW112037   6.551   3.473   1.625
 3815SOL    HW212038   6.608   3.346   1.684
 3816SOL     OW12039   7.445   3.379   1.604
 3816SOL    HW112040   7.467   3.401   1.513
 3816SOL    HW212041   7.524   3.400   1.654
 3817SOL     OW12042   5.937   2.776   1.805
 3817SOL    HW112043   6.019   2.795   1.850
 3817SOL    HW212044   5.962   2.716   1.735
 3818SOL     OW12045   7.125   2.137   0.123
 3818SOL    HW112046   7.062   2.068   0.146
 3818SOL    HW212047   7.151   2.175   0.207
 3819SOL     OW12048   6.888   2.693   0.035
 3819SOL    HW112049   6.922   2.603   0.043
 3819SOL    HW212050   6.905   2.717  -0.056
 3820SOL     OW12051   6.651   3.196   0.850
 3820SOL    HW112052   6.656   3.121   0.791
 3820SOL    HW212053   6.715   3.258   0.816
 3821SOL     OW12054   5.899   2.675   0.955
 3821SOL    HW112055   5.992   2.698   0.948
 3821SOL    HW212056   5.899   2.584   0.986
 3822SOL     OW12057   5.928   2.383   0.995
 3822SOL    HW112058   5.879   2.303   0.981
 3822SOL    HW212059   6.002   2.377   0.935
 3823SOL     OW12060   6.722   2.244   1.675
 3823SOL    HW112061   6.680   2.299   1.742
 3823SOL    HW212062   6.812   2.277   1.671
 3824SOL     OW12063   6.745   2.067   1.471
 3824SOL    HW112064   6.740   2.129   1.545
 3824SOL    HW212065   6.778   2.119   1.398
 3825SOL     OW12066   5.591   3.192   0.200
 3825SOL    HW112067   5.503   3.203   0.164
 3825SOL    HW212068   5.597   3.098   0.219
 3826SOL     OW12069   5.676   3.657   0.933
 3826SOL    HW112070   5.642   3.577   0.894
 3826SOL    HW212071   5.766   3.664   0.900
 3827SOL     OW12072   6.088   3.434   0.905
 3827SOL    HW112073   6.157   3.497   0.926
 3827SOL    HW212074   6.134   3.362   0.860
 3828SOL     OW12075   6.581   2.659   1.232
 3828SOL    HW112076   6.627   2.630   1.311
 3828SOL    HW212077   6.492   2.626   1.243
 3829SOL     OW12078   5.778   2.381   1.724
 3829SOL    HW112079   5.831   2.345   1.652
 3829SOL    HW212080   5.720   2.444   1.682
 3830SOL     OW12081   6.961   2.807   1.660
 3830SOL    HW112082   6.984   2.899   1.667
 3830SOL    HW212083   6.962   2.789   1.566
 3831SOL     OW12084   6.401   2.432   0.344
 3831SOL    HW112085   6.403   2.354   0.289
 3831SOL    HW212086   6.317   2.474   0.322
 3832SOL     OW12087   7.238   2.461   1.192
 3832SOL    HW112088   7.217   2.402   1.264
 3832SOL    HW212089   7.326   2.435   1.164
 3833SOL     OW12090   5.839   3.419   1.737
 3833SOL    HW112091   5.808   3.478   1.806
 3833SOL    HW212092   5.830   3.331   1.775
 3834SOL     OW12093   6.275   2.323   1.268
 3834SOL    HW112094   6.223   2.247   1.240
 3834SOL    HW212095   6.277   2.380   1.191
 3835SOL     OW12096   6.518   3.539   1.464
 3835SOL    HW112097   6.491   3.519   1.375
 3835SOL    HW212098   6.530   3.634   1.465
 3836SOL     OW12099   6.056   2.356   0.198
 3836SOL    HW112100   6.112   2.434   0.202
 3836SOL    HW212101   5.967   2.391   0.190
 3837SOL     OW12102   5.737   3.000   1.470
 3837SOL    HW112103   5.752   2.944   1.546
 3837SOL    HW212104   5.760   2.946   1.395
 3838SOL     OW12105   6.924   2.915   1.229
 3838SOL    HW112106   6.948   2.855   1.159
 3838SOL    HW212107   6.845   2.959   1.198
 3839SOL     OW12108   6.892   2.711   0.311
 3839SOL    HW112109   6.807   2.689   0.351
 3839SOL    HW212110   6.876   2.707   0.217
 3840SOL     OW12111   7.345   3.613   1.146
 3840SOL    HW112112   7.410   3.634   1.079
 3840SOL    HW212113   7.324   3.521   1.130
 3841SOL     OW12114   6.831   3.593   1.123
 3841SOL    HW112115   6.913   3.605   1.074
 3841SOL    HW212116   6.826   3.499   1.140
 3842SOL     OW12117   5.669   3.128   1.014
 3842SOL    HW112118   5.661   3.133   1.110
 3842SOL    HW212119   5.594   3.076   0.987
 3843SOL     OW12120   6.266   3.523   1.717
 3843SOL    HW112121   6.219   3.606   1.721
 3843SOL    HW212122   6.325   3.532   1.642
 3844SOL     OW12123   6.492   1.953   0.129
 3844SOL    HW112124   6.540   1.940   0.047
 3844SOL    HW212125   6.541   1.903   0.194
 3845SOL     OW12126   7.304   1.997   0.515
 3845SOL    HW112127   7.381   1.981   0.461
 3845SOL    HW212128   7.286   1.913   0.557
 3846SOL     OW12129   6.976   3.431   0.480
 3846SOL    HW112130   7.036   3.456   0.410
 3846SOL    HW212131   6.933   3.513   0.505
 3847SOL     OW12132   5.719   3.659   1.845
 3847SOL    HW112133   5.672   3.593   1.895
 3847SOL    HW212134   5.772   3.705   1.910
 3848SOL     OW12135   6.863   2.785   0.671
 3848SOL    HW112136   6.934   2.720   0.673
 3848SOL    HW212137   6.898   2.857   0.619
 3849SOL     OW12138   6.411   3.132   1.430
 3849SOL    HW112139   6.393   3.170   1.516
 3849SOL    HW212140   6.334   3.155   1.378
 3850SOL     OW12141   6.261   3.474   0.161
 3850SOL    HW112142   6.256   3.494   0.067
 3850SOL    HW212143   6.210   3.394   0.170
 3851SOL     OW12144   7.232   3.586   1.394
 3851SOL    HW112145   7.277   3.596   1.310
 3851SOL    HW212146   7.213   3.675   1.422
 3852SOL     OW12147   7.433   2.030   0.968
 3852SOL    HW112148   7.466   1.952   0.924
 3852SOL    HW212149   7.345   2.042   0.932
 3853SOL     OW12150   5.852   2.188   0.725
 3853SOL    HW112151   5.772   2.222   0.686
 3853SOL    HW212152   5.827   2.164   0.815
 3854SOL     OW12153   6.772   3.477   0.053
 3854SOL    HW112154   6.777   3.384   0.076
 3854SOL    HW212155   6.747   3.478  -0.039
 3855SOL     OW12156   6.410   2.867   1.371
 3855SOL    HW112157   6.452   2.867   1.285
 3855SOL    HW212158   6.414   2.958   1.400
 3856SOL     OW12159   6.502   2.773   0.290
 3856SOL    HW112160   6.564   2.807   0.225
 3856SOL    HW212161   6.547   2.698   0.329
 3857SOL     OW12162   7.090   3.481   0.044
 3857SOL    HW112163   6.996   3.494   0.037
 3857SOL    HW212164   7.123   3.494  -0.045
 3858SOL     OW12165   5.956   3.156   1.491
 3858SOL    HW112166   5.942   3.239   1.445
 3858SOL    HW212167   5.876   3.106   1.474
 3859SOL     OW12168   7.207   3.151   1.284
 3859SOL    HW112169   7.257   3.147   1.366
 3859SOL    HW212170   7.139   3.217   1.301
 3860SOL     OW12171   6.628   2.963   0.702
 3860SOL    HW112172   6.560   2.911   0.745
 3860SOL    HW212173   6.686   2.899   0.662
 3861SOL     OW12174   6.601   2.100   0.966
 3861SOL    HW112175   6.596   2.054   0.883
 3861SOL    HW212176   6.599   2.031   1.032
 3862SOL     OW12177   6.183   3.352   0.486
 3862SOL    HW112178   6.219   3.298   0.416
 3862SOL    HW212179   6.127   3.415   0.442
 3863SOL     OW12180   7.302   2.252   1.380
 3863SOL    HW112181   7.375   2.314   1.379
 3863SOL    HW212182   7.331   2.180   1.324
 3864SOL     OW12183   5.846   3.212   0.288
 3864SOL    HW112184   5.754   3.207   0.261
 3864SOL    HW212185   5.844   3.251   0.376
 3865SOL     OW12186   5.696   2.876   1.722
 3865SOL    HW112187   5.621   2.850   1.775
 3865SOL    HW212188   5.772   2.841   1.769
 3866SOL     OW12189   6.257   2.067   1.491
 3866SOL    HW112190   6.342   2.043   1.453
 3866SOL    HW212191   6.275   2.077   1.584
 3867SOL     OW12192   5.654   2.205   0.037
 3867SOL    HW112193   5.564   2.187   0.010
 3867SOL    HW212194   5.679   2.283  -0.012
 3868SOL     OW12195   7.022   2.720   1.402
 3868SOL    HW112196   6.973   2.775   1.341
 3868SOL    HW212197   7.113   2.726   1.373
 3869SOL     OW12198   5.659   2.023   0.317
 3869SOL    HW112199   5.644   2.103   0.266
 3869SOL    HW212200   5.744   1.991   0.287
 3870SOL     OW12201   6.771   3.212   0.119
 3870SOL    HW112202   6.680   3.183   0.116
 3870SOL    HW212203   6.797   3.202   0.211
 3871SOL     OW12204   6.201   2.698   1.428
 3871SOL    HW112205   6.257   2.775   1.417
 3871SOL    HW212206   6.263   2.625   1.438
 3872SOL     OW12207   7.075   3.632   0.966
 3872SOL    HW112208   7.107   3.690   0.897
 3872SOL    HW212209   7.149   3.623   1.027
 3873SOL     OW12210   6.302   2.427   1.708
 3873SOL    HW112211   6.329   2.490   1.775
 3873SOL    HW212212   6.352   2.348   1.728
 3874SOL     OW12213   7.046   3.072   1.634
 3874SOL    HW112214   7.037   3.080   1.729
 3874SOL    HW212215   7.141   3.077   1.619
 3875SOL     OW12216   5.972   3.603   1.561
 3875SOL    HW112217   5.884   3.639   1.555
 3875SOL    HW212218   5.960   3.516   1.600
 3876SOL     OW12219   7.258   2.745   1.256
 3876SOL    HW112220   7.246   2.660   1.214
 3876SOL    HW212221   7.255   2.808   1.184
 3877SOL     OW12222   6.808   2.183   0.455
 3877SOL    HW112223   6.873   2.113   0.445
 3877SOL    HW212224   6.834   2.230   0.534
 3878SOL     OW12225   6.178   2.606   0.661
 3878SOL    HW112226   6.221   2.689   0.642
 3878SOL    HW212227   6.103   2.603   0.602
 3879SOL     OW12228   7.360   2.216   1.648
 3879SOL    HW112229   7.341   2.228   1.555
 3879SOL    HW212230   7.286   2.164   1.680
 3880SOL     OW12231   7.322   2.796   1.515
 3880SOL    HW112232   7.342   2.889   1.525
 3880SOL    HW212233   7.311   2.784   1.420
 3881SOL     OW12234   6.494   3.239   0.042
 3881SOL    HW112235   6.419   3.240   0.101
 3881SOL    HW212236   6.485   3.320  -0.009
 3882SOL     OW12237   6.243   3.656   0.952
 3882SOL    HW112238   6.216   3.745   0.930
 3882SOL    HW212239   6.339   3.657   0.943
 3883SOL     OW12240   6.448   2.822   0.858
 3883SOL    HW112241   6.500   2.755   0.903
 3883SOL    HW212242   6.419   2.881   0.928
 3884SOL     OW12243   6.683   2.865   0.100
 3884SOL    HW112244   6.633   2.876   0.019
 3884SOL    HW212245   6.751   2.801   0.077
 3885SOL     OW12246   7.452   3.431   0.850
 3885SOL    HW112247   7.378   3.421   0.790
 3885SOL    HW212248   7.442   3.360   0.913
 3886SOL     OW12249   5.809   3.169   1.852
 3886SOL    HW112250   5.740   3.107   1.828
 3886SOL    HW212251   5.798   3.184   1.946
 3887SOL     OW12252   5.669   3.103   0.661
 3887SOL    HW112253   5.670   3.050   0.740
 3887SOL    HW212254   5.740   3.067   0.607
 3888SOL     OW12255   6.261   3.258   1.621
 3888SOL    HW112256   6.184   3.214   1.656
 3888SOL    HW212257   6.258   3.346   1.659
 3889SOL     OW12258   7.402   2.051   1.235
 3889SOL    HW112259   7.407   1.959   1.259
 3889SOL    HW212260   7.415   2.052   1.140
 3890SOL     OW12261   6.016   2.293   0.523
 3890SOL    HW112262   6.042   2.221   0.465
 3890SOL    HW212263   5.972   2.250   0.596
 3891SOL     OW12264   7.290   3.354   1.105
 3891SOL    HW112265   7.207   3.325   1.068
 3891SOL    HW212266   7.308   3.292   1.175
 3892SOL     OW12267   6.406   3.441   0.685
 3892SOL    HW112268   6.416   3.469   0.594
 3892SOL    HW212269   6.325   3.390   0.686
 3893SOL     OW12270   7.016   2.082   1.117
 3893SOL    HW112271   7.054   2.010   1.169
 3893SOL    HW212272   6.964   2.132   1.179
 3894SOL     OW12273   6.591   1.888   1.149
 3894SOL    HW112274   6.536   1.816   1.119
 3894SOL    HW212275   6.679   1.852   1.152
 3895SOL     OW12276   6.353   3.193   0.306
 3895SOL    HW112277   6.318   3.104   0.317
 3895SOL    HW212278   6.441   3.190   0.345
 3896SOL     OW12279   6.204   3.426   1.282
 3896SOL    HW112280   6.208   3.505   1.336
 3896SOL    HW212281   6.292   3.420   1.244
 3897SOL     OW12282   6.938   1.914   0.167
 3897SOL    HW112283   6.964   1.871   0.086
 3897SOL    HW212284   6.852   1.877   0.187
 3898SOL     OW12285   6.884   2.319   0.686
 3898SOL    HW112286   6.829   2.397   0.696
 3898SOL    HW212287   6.888   2.281   0.774
 3899SOL     OW12288   7.178   2.074   0.880
 3899SOL    HW112289   7.104   2.085   0.939
 3899SOL    HW212290   7.178   2.153   0.825
 3900SOL     OW12291   5.626   2.938   0.304
 3900SOL    HW112292   5.721   2.930   0.295
 3900SOL    HW212293   5.597   2.851   0.333
 3901SOL     OW12294   6.462   3.508   0.348
 3901SOL    HW112295   6.393   3.487   0.285
 3901SOL    HW212296   6.430   3.585   0.394
 3902SOL     OW12297   5.817   2.489   1.979
 3902SOL    HW112298   5.727   2.487   2.011
 3902SOL    HW212299   5.811   2.456   1.890
 3903SOL     OW12300   5.810   2.138   2.852
 3903SOL    HW112301   5.840   2.114   2.940
 3903SOL    HW212302   5.722   2.102   2.846
 3904SOL     OW12303   5.596   2.241   2.501
 3904SOL    HW112304   5.514   2.265   2.544
 3904SOL    HW212305   5.575   2.162   2.452
 3905SOL     OW12306   6.154   3.138   3.030
 3905SOL    HW112307   6.065   3.138   2.993
 3905SOL    HW212308   6.165   3.225   3.067
 3906SOL     OW12309   7.140   3.373   2.564
 3906SOL    HW112310   7.092   3.359   2.646
 3906SOL    HW212311   7.072   3.381   2.497
 3907SOL     OW12312   6.715   2.563   2.572
 3907SOL    HW112313   6.769   2.641   2.555
 3907SOL    HW212314   6.667   2.583   2.652
 3908SOL     OW12315   7.343   2.471   2.097
 3908SOL    HW112316   7.331   2.460   2.003
 3908SOL    HW212317   7.312   2.389   2.136
 3909SOL     OW12318   6.351   3.008   2.893
 3909SOL    HW112319   6.278   3.036   2.948
 3909SOL    HW212320   6.381   3.088   2.851
 3910SOL     OW12321   6.273   2.875   2.517
 3910SOL    HW112322   6.335   2.856   2.588
 3910SOL    HW212323   6.202   2.923   2.560
 3911SOL     OW12324   5.918   3.296   2.929
 3911SOL    HW112325   5.847   3.262   2.876
 3911SOL    HW212326   5.972   3.347   2.868
 3912SOL     OW12327   7.052   3.361   3.201
 3912SOL    HW112328   7.083   3.450   3.220
 3912SOL    HW212329   7.014   3.331   3.284
 3913SOL     OW12330   6.030   2.259   3.353
 3913SOL    HW112331   6.103   2.198   3.360
 3913SOL    HW212332   5.952   2.204   3.364
 3914SOL     OW12333   7.194   2.310   2.600
 3914SOL    HW112334   7.121   2.348   2.550
 3914SOL    HW212335   7.231   2.384   2.648
 3915SOL     OW12336   5.810   3.574   2.341
 3915SOL    HW112337   5.839   3.650   2.391
 3915SOL    HW212338   5.868   3.571   2.265
 3916SOL     OW12339   5.815   3.299   2.396
 3916SOL    HW112340   5.795   3.392   2.404
 3916SOL    HW212341   5.749   3.256   2.451
 3917SOL     OW12342   5.834   2.952   2.750
 3917SOL    HW112343   5.835   2.869   2.797
 3917SOL    HW212344   5.776   3.008   2.802
 3918SOL     OW12345   6.206   3.649   3.299
 3918SOL    HW112346   6.120   3.635   3.340
 3918SOL    HW212347   6.227   3.741   3.318
 3919SOL     OW12348   6.181   2.835   1.990
 3919SOL    HW112349   6.213   2.900   1.927
 3919SOL    HW212350   6.228   2.856   2.071
 3920SOL     OW12351   7.178   1.979   3.342
 3920SOL    HW112352   7.171   2.051   3.279
 3920SOL    HW212353   7.176   2.022   3.428
 3921SOL     OW12354   5.704   2.509   2.423
 3921SOL    HW112355   5.669   2.422   2.442
 3921SOL    HW212356   5.694   2.557   2.505
 3922SOL     OW12357   7.437   3.629   2.206
 3922SOL    HW112358   7.478   3.602   2.288
 3922SOL    HW212359   7.474   3.715   2.188
 3923SOL     OW12360   5.613   3.459   1.985
 3923SOL    HW112361   5.596   3.367   2.003
 3923SOL    HW212362   5.585   3.506   2.064
 3924SOL     OW12363   7.277   2.780   2.489
 3924SOL    HW112364   7.368   2.752   2.479
 3924SOL    HW212365   7.259   2.833   2.412
 3925SOL     OW12366   7.231   2.969   2.294
 3925SOL    HW112367   7.313   2.980   2.247
 3925SOL    HW212368   7.238   3.028   2.369
 3926SOL     OW12369   5.704   2.598   3.449
 3926SOL    HW112370   5.793   2.609   3.481
 3926SOL    HW212371   5.669   2.687   3.444
 3927SOL     OW12372   6.198   3.236   2.594
 3927SOL    HW112373   6.152   3.153   2.601
 3927SOL    HW212374   6.179   3.267   2.506
 3928SOL     OW12375   6.885   3.099   3.297
 3928SOL    HW112376   6.913   3.032   3.235
 3928SOL    HW212377   6.936   3.081   3.376
 3929SOL     OW12378   6.394   1.860   2.362
 3929SOL    HW112379   6.435   1.946   2.355
 3929SOL    HW212380   6.301   1.879   2.376
 3930SOL     OW12381   5.781   2.836   3.125
 3930SOL    HW112382   5.864   2.789   3.112
 3930SOL    HW212383   5.714   2.773   3.100
 3931SOL     OW12384   7.118   2.854   2.054
 3931SOL    HW112385   7.049   2.791   2.077
 3931SOL    HW212386   7.154   2.881   2.138
 3932SOL     OW12387   7.050   3.282   2.815
 3932SOL    HW112388   6.985   3.292   2.885
 3932SOL    HW212389   7.039   3.192   2.785
 3933SOL     OW12390   7.253   3.584   2.436
 3933SOL    HW112391   7.218   3.558   2.351
 3933SOL    HW212392   7.227   3.512   2.495
 3934SOL     OW12393   6.181   2.587   2.126
 3934SOL    HW112394   6.197   2.663   2.070
 3934SOL    HW212395   6.114   2.617   2.188
 3935SOL     OW12396   6.868   2.206   2.796
 3935SOL    HW112397   6.780   2.168   2.799
 3935SOL    HW212398   6.918   2.155   2.859
 3936SOL     OW12399   7.168   3.527   2.170
 3936SOL    HW112400   7.255   3.565   2.165
 3936SOL    HW212401   7.145   3.507   2.079
 3937SOL     OW12402   6.388   2.472   3.318
 3937SOL    HW112403   6.353   2.459   3.406
 3937SOL    HW212404   6.337   2.413   3.262
 3938SOL     OW12405   6.554   2.757   3.432
 3938SOL    HW112406   6.600   2.680   3.397
 3938SOL    HW212407   6.499   2.787   3.360
 3939SOL     OW12408   6.577   2.273   3.105
 3939SOL    HW112409   6.497   2.303   3.147
 3939SOL    HW212410   6.548   2.226   3.027
 3940SOL     OW12411   6.633   2.562   2.290
 3940SOL    HW112412   6.647   2.556   2.385
 3940SOL    HW212413   6.551   2.514   2.275
 3941SOL     OW12414   5.672   2.680   2.637
 3941SOL    HW112415   5.757   2.670   2.679
 3941SOL    HW212416   5.636   2.760   2.675
 3942SOL     OW12417   5.717   3.690   3.439
 3942SOL    HW112418   5.700   3.667   3.530
 3942SOL    HW212419   5.630   3.710   3.403
 3943SOL     OW12420   6.460   2.207   2.056
 3943SOL    HW112421   6.512   2.266   2.002
 3943SOL    HW212422   6.482   2.119   2.023
 3944SOL     OW12423   6.956   3.006   2.406
 3944SOL    HW112424   7.033   2.986   2.353
 3944SOL    HW212425   6.906   3.068   2.353
 3945SOL     OW12426   6.134   2.051   2.751
 3945SOL    HW112427   6.135   2.069   2.845
 3945SOL    HW212428   6.138   2.138   2.711
 3946SOL     OW12429   6.597   3.311   2.338
 3946SOL    HW112430   6.553   3.382   2.290
 3946SOL    HW212431   6.588   3.336   2.430
 3947SOL     OW12432   5.938   3.665   2.714
 3947SOL    HW112433   5.986   3.582   2.725
 3947SOL    HW212434   6.006   3.732   2.723
 3948SOL     OW12435   7.389   2.932   2.732
 3948SOL    HW112436   7.328   2.912   2.661
 3948SOL    HW212437   7.334   2.937   2.810
 3949SOL     OW12438   6.818   3.400   3.353
 3949SOL    HW112439   6.816   3.323   3.410
 3949SOL    HW212440   6.753   3.381   3.285
 3950SOL     OW12441   5.907   2.813   2.105
 3950SOL    HW112442   5.990   2.835   2.062
 3950SOL    HW212443   5.880   2.731   2.063
 3951SOL     OW12444   7.054   2.596   2.589
 3951SOL    HW112445   7.043   2.545   2.669
 3951SOL    HW212446   7.129   2.653   2.607
 3952SOL     OW12447   6.704   3.638   2.096
 3952SOL    HW112448   6.637   3.589   2.143
 3952SOL    HW212449   6.723   3.585   2.019
 3953SOL     OW12450   5.789   2.140   3.352
 3953SOL    HW112451   5.714   2.196   3.334
 3953SOL    HW212452   5.770   2.099   3.436
 3954SOL     OW12453   7.225   3.239   1.948
 3954SOL    HW112454   7.185   3.324   1.935
 3954SOL    HW212455   7.154   3.176   1.932
 3955SOL     OW12456   6.052   3.603   2.184
 3955SOL    HW112457   6.088   3.653   2.257
 3955SOL    HW212458   6.128   3.586   2.127
 3956SOL     OW12459   6.987   1.970   2.289
 3956SOL    HW112460   6.971   1.941   2.200
 3956SOL    HW212461   7.082   1.980   2.295
 3957SOL     OW12462   5.838   3.652   3.099
 3957SOL    HW112463   5.891   3.587   3.146
 3957SOL    HW212464   5.825   3.613   3.012
 3958SOL     OW12465   6.526   3.560   2.765
 3958SOL    HW112466   6.601   3.504   2.783
 3958SOL    HW212467   6.478   3.514   2.696
 3959SOL     OW12468   5.972   2.559   2.342
 3959SOL    HW112469   6.003   2.469   2.345
 3959SOL    HW212470   5.879   2.554   2.365
 3960SOL     OW12471   6.207   1.988   1.975
 3960SOL    HW112472   6.293   1.946   1.980
 3960SOL    HW212473   6.170   1.957   1.892
 3961SOL     OW12474   6.467   3.380   3.056
 3961SOL    HW112475   6.451   3.347   2.967
 3961SOL    HW212476   6.531   3.320   3.092
 3962SOL     OW12477   6.929   2.451   3.302
 3962SOL    HW112478   6.969   2.421   3.383
 3962SOL    HW212479   6.964   2.538   3.288
 3963SOL     OW12480   6.394   3.265   2.792
 3963SOL    HW112481   6.478   3.263   2.746
 3963SOL    HW212482   6.328   3.258   2.723
 3964SOL     OW12483   6.511   2.369   2.765
 3964SOL    HW112484   6.487   2.359   2.673
 3964SOL    HW212485   6.550   2.285   2.790
 3965SOL     OW12486   6.132   1.924   2.372
 3965SOL    HW112487   6.051   1.927   2.423
 3965SOL    HW212488   6.129   2.003   2.317
 3966SOL     OW12489   7.016   3.057   1.901
 3966SOL    HW112490   7.048   2.983   1.954
 3966SOL    HW212491   6.930   3.077   1.938
 3967SOL     OW12492   5.880   1.904   2.042
 3967SOL    HW112493   5.936   1.975   2.010
 3967SOL    HW212494   5.942   1.841   2.081
 3968SOL     OW12495   6.520   2.101   2.334
 3968SOL    HW112496   6.485   2.144   2.255
 3968SOL    HW212497   6.615   2.108   2.325
 3969SOL     OW12498   6.665   2.540   3.324
 3969SOL    HW112499   6.592   2.477   3.321
 3969SOL    HW212500   6.743   2.487   3.309
 3970SOL     OW12501   6.812   3.431   2.655
 3970SOL    HW112502   6.833   3.501   2.593
 3970SOL    HW212503   6.879   3.438   2.723
 3971SOL     OW12504   6.050   3.008   2.604
 3971SOL    HW112505   5.976   2.990   2.662
 3971SOL    HW212506   6.015   2.989   2.516
 3972SOL     OW12507   6.859   3.659   2.461
 3972SOL    HW112508   6.899   3.721   2.400
 3972SOL    HW212509   6.801   3.711   2.515
 3973SOL     OW12510   6.617   2.411   1.877
 3973SOL    HW112511   6.576   2.494   1.853
 3973SOL    HW212512   6.677   2.433   1.948
 3974SOL     OW12513   5.662   2.414   3.254
 3974SOL    HW112514   5.751   2.416   3.220
 3974SOL    HW212515   5.658   2.487   3.316
 3975SOL     OW12516   6.151   2.088   3.021
 3975SOL    HW112517   6.182   2.003   3.053
 3975SOL    HW212518   6.060   2.092   3.050
 3976SOL     OW12519   6.456   2.320   2.503
 3976SOL    HW112520   6.413   2.378   2.440
 3976SOL    HW212521   6.474   2.240   2.454
 3977SOL     OW12522   6.600   1.911   2.618
 3977SOL    HW112523   6.538   1.904   2.545
 3977SOL    HW212524   6.581   1.836   2.673
 3978SOL     OW12525   7.019   3.029   2.723
 3978SOL    HW112526   6.957   2.956   2.719
 3978SOL    HW212527   7.039   3.048   2.631
 3979SOL     OW12528   7.055   2.459   2.850
 3979SOL    HW112529   7.017   2.371   2.856
 3979SOL    HW212530   7.120   2.461   2.920
 3980SOL     OW12531   7.443   2.692   2.240
 3980SOL    HW112532   7.493   2.632   2.295
 3980SOL    HW212533   7.408   2.636   2.170
 3981SOL     OW12534   6.079   3.264   2.030
 3981SOL    HW112535   6.001   3.237   2.079
 3981SOL    HW212536   6.052   3.263   1.938
 3982SOL     OW12537   7.257   3.133   2.514
 3982SOL    HW112538   7.350   3.145   2.534
 3982SOL    HW212539   7.216   3.216   2.538
 3983SOL     OW12540   6.978   2.435   1.934
 3983SOL    HW112541   6.923   2.415   2.010
 3983SOL    HW212542   7.064   2.399   1.958
 3984SOL     OW12543   6.113   2.123   2.188
 3984SOL    HW112544   6.145   2.069   2.115
 3984SOL    HW212545   6.104   2.211   2.151
 3985SOL     OW12546   7.351   3.083   3.428
 3985SOL    HW112547   7.443   3.058   3.438
 3985SOL    HW212548   7.344   3.169   3.470
 3986SOL     OW12549   6.653   3.214   3.201
 3986SOL    HW112550   6.576   3.183   3.248
 3986SOL    HW212551   6.727   3.170   3.244
 3987SOL     OW12552   6.704   3.061   2.969
 3987SOL    HW112553   6.650   3.101   3.036
 3987SOL    HW212554   6.667   3.092   2.886
 3988SOL     OW12555   7.221   2.963   2.941
 3988SOL    HW112556   7.220   3.030   3.009
 3988SOL    HW212557   7.137   2.974   2.895
 3989SOL     OW12558   6.503   1.960   3.268
 3989SOL    HW112559   6.522   1.937   3.176
 3989SOL    HW212560   6.583   2.003   3.299
 3990SOL     OW12561   6.293   2.919   2.234
 3990SOL    HW112562   6.280   2.910   2.328
 3990SOL    HW212563   6.370   2.866   2.215
 3991SOL     OW12564   6.000   2.674   3.112
 3991SOL    HW112565   6.071   2.685   3.175
 3991SOL    HW212566   5.962   2.589   3.134
 3992SOL     OW12567   6.857   2.243   3.131
 3992SOL    HW112568   6.884   2.321   3.180
 3992SOL    HW212569   6.771   2.265   3.096
 3993SOL     OW12570   5.652   3.434   3.197
 3993SOL    HW112571   5.617   3.512   3.153
 3993SOL    HW212572   5.747   3.448   3.199
 3994SOL     OW12573   5.947   2.964   2.358
 3994SOL    HW112574   5.946   3.039   2.298
 3994SOL    HW212575   5.948   2.888   2.300
 3995SOL     OW12576   6.147   2.400   2.725
 3995SOL    HW112577   6.164   2.460   2.653
 3995SOL    HW212578   6.201   2.433   2.797
 3996SOL     OW12579   6.834   3.209   2.251
 3996SOL    HW112580   6.886   3.283   2.284
 3996SOL    HW212581   6.746   3.225   2.285
 3997SOL     OW12582   6.857   3.314   3.006
 3997SOL    HW112583   6.909   3.318   3.086
 3997SOL    HW212584   6.803   3.236   3.016
 3998SOL     OW12585   7.170   2.494   2.337
 3998SOL    HW112586   7.133   2.556   2.400
 3998SOL    HW212587   7.214   2.550   2.272
 3999SOL     OW12588   5.937   3.379   3.186
 3999SOL    HW112589   5.921   3.336   3.102
 3999SOL    HW212590   6.032   3.395   3.188
 4000SOL     OW12591   5.988   2.611   3.463
 4000SOL    HW112592   6.052   2.662   3.414
 4000SOL    HW212593   6.034   2.529   3.483
 4001SOL     OW12594   7.177   2.629   3.525
 4001SOL    HW112595   7.099   2.683   3.537
 4001SOL    HW212596   7.238   2.684   3.477
 4002SOL     OW12597   6.166   2.732   2.893
 4002SOL    HW112598   6.197   2.822   2.886
 4002SOL    HW212599   6.106   2.733   2.968
 4003SOL     OW12600   6.948   2.723   2.902
 4003SOL    HW112601   6.871   2.718   2.844
 4003SOL    HW212602   6.980   2.633   2.906
 4004SOL     OW12603   6.797   2.391   2.135
 4004SOL    HW112604   6.803   2.311   2.188
 4004SOL    HW212605   6.758   2.456   2.194
 4005SOL     OW12606   5.892   2.068   3.102
 4005SOL    HW112607   5.859   2.101   3.186
 4005SOL    HW212608   5.866   1.976   3.101
 4006SOL     OW12609   5.633   3.171   3.139
 4006SOL    HW112610   5.667   3.123   3.215
 4006SOL    HW212611   5.640   3.263   3.163
 4007SOL     OW12612   6.317   2.496   2.926
 4007SOL    HW112613   6.381   2.475   2.859
 4007SOL    HW212614   6.287   2.585   2.905
 4008SOL     OW12615   5.888   1.929   2.484
 4008SOL    HW112616   5.874   2.019   2.514
 4008SOL    HW212617   5.888   1.877   2.564
 4009SOL     OW12618   7.197   2.230   2.233
 4009SOL    HW112619   7.221   2.166   2.300
 4009SOL    HW212620   7.170   2.308   2.282
 4010SOL     OW12621   6.611   2.625   2.827
 4010SOL    HW112622   6.618   2.642   2.920
 4010SOL    HW212623   6.584   2.533   2.821
 4011SOL     OW12624   7.444   3.363   3.447
 4011SOL    HW112625   7.470   3.400   3.363
 4011SOL    HW212626   7.500   3.406   3.511
 4012SOL     OW12627   7.118   2.138   1.988
 4012SOL    HW112628   7.060   2.068   2.016
 4012SOL    HW212629   7.151   2.176   2.070
 4013SOL     OW12630   6.885   2.692   1.900
 4013SOL    HW112631   6.925   2.606   1.905
 4013SOL    HW212632   6.912   2.726   1.814
 4014SOL     OW12633   6.651   3.196   2.712
 4014SOL    HW112634   6.656   3.121   2.653
 4014SOL    HW212635   6.715   3.258   2.678
 4015SOL     OW12636   5.900   2.674   2.812
 4015SOL    HW112637   5.993   2.697   2.810
 4015SOL    HW212638   5.898   2.588   2.853
 4016SOL     OW12639   5.923   2.378   2.870
 4016SOL    HW112640   5.882   2.293   2.852
 4016SOL    HW212641   5.997   2.382   2.810
 4017SOL     OW12642   6.734   2.077   3.339
 4017SOL    HW112643   6.755   2.138   3.411
 4017SOL    HW212644   6.776   2.116   3.262
 4018SOL     OW12645   5.591   3.187   2.058
 4018SOL    HW112646   5.503   3.200   2.024
 4018SOL    HW212647   5.593   3.095   2.085
 4019SOL     OW12648   5.676   3.657   2.794
 4019SOL    HW112649   5.642   3.576   2.757
 4019SOL    HW212650   5.765   3.663   2.762
 4020SOL     OW12651   6.088   3.434   2.766
 4020SOL    HW112652   6.158   3.497   2.788
 4020SOL    HW212653   6.133   3.362   2.722
 4021SOL     OW12654   6.582   2.659   3.093
 4021SOL    HW112655   6.626   2.630   3.173
 4021SOL    HW212656   6.492   2.627   3.103
 4022SOL     OW12657   5.623   2.404   2.978
 4022SOL    HW112658   5.706   2.381   2.936
 4022SOL    HW212659   5.646   2.415   3.070
 4023SOL     OW12660   6.401   2.430   2.206
 4023SOL    HW112661   6.403   2.353   2.149
 4023SOL    HW212662   6.320   2.476   2.181
 4024SOL     OW12663   7.238   2.460   3.053
 4024SOL    HW112664   7.218   2.402   3.127
 4024SOL    HW212665   7.326   2.435   3.026
 4025SOL     OW12666   5.869   3.417   0.059
 4025SOL    HW112667   5.810   3.475   0.107
 4025SOL    HW212668   5.835   3.330   0.075
 4026SOL     OW12669   6.272   2.319   3.129
 4026SOL    HW112670   6.225   2.243   3.095
 4026SOL    HW212671   6.277   2.379   3.054
 4027SOL     OW12672   6.525   3.537   3.330
 4027SOL    HW112673   6.493   3.513   3.243
 4027SOL    HW212674   6.532   3.632   3.328
 4028SOL     OW12675   6.058   2.358   2.052
 4028SOL    HW112676   6.113   2.434   2.066
 4028SOL    HW212677   5.968   2.392   2.049
 4029SOL     OW12678   5.744   3.001   3.330
 4029SOL    HW112679   5.752   2.941   3.404
 4029SOL    HW212680   5.755   2.945   3.253
 4030SOL     OW12681   6.922   2.916   3.093
 4030SOL    HW112682   6.949   2.856   3.024
 4030SOL    HW212683   6.844   2.959   3.059
 4031SOL     OW12684   6.891   2.716   2.172
 4031SOL    HW112685   6.809   2.688   2.214
 4031SOL    HW212686   6.875   2.705   2.078
 4032SOL     OW12687   7.345   3.613   3.010
 4032SOL    HW112688   7.409   3.634   2.942
 4032SOL    HW212689   7.323   3.521   2.994
 4033SOL     OW12690   6.831   3.594   2.984
 4033SOL    HW112691   6.913   3.605   2.936
 4033SOL    HW212692   6.826   3.500   3.002
 4034SOL     OW12693   5.669   3.124   2.879
 4034SOL    HW112694   5.659   3.131   2.974
 4034SOL    HW212695   5.592   3.076   2.849
 4035SOL     OW12696   7.304   1.997   2.377
 4035SOL    HW112697   7.381   1.981   2.323
 4035SOL    HW212698   7.286   1.913   2.419
 4036SOL     OW12699   6.976   3.431   2.342
 4036SOL    HW112700   7.036   3.457   2.272
 4036SOL    HW212701   6.932   3.512   2.367
 4037SOL     OW12702   6.863   2.785   2.533
 4037SOL    HW112703   6.934   2.720   2.535
 4037SOL    HW212704   6.898   2.857   2.481
 4038SOL     OW12705   6.412   3.132   3.290
 4038SOL    HW112706   6.398   3.165   3.379
 4038SOL    HW212707   6.332   3.156   3.243
 4039SOL     OW12708   6.258   3.476   2.017
 4039SOL    HW112709   6.266   3.484   1.922
 4039SOL    HW212710   6.211   3.393   2.030
 4040SOL     OW12711   7.226   3.583   3.261
 4040SOL    HW112712   7.275   3.593   3.179
 4040SOL    HW212713   7.211   3.673   3.290
 4041SOL     OW12714   7.433   2.030   2.830
 4041SOL    HW112715   7.466   1.952   2.786
 4041SOL    HW212716   7.345   2.042   2.795
 4042SOL     OW12717   5.854   2.183   2.583
 4042SOL    HW112718   5.771   2.222   2.553
 4042SOL    HW212719   5.842   2.172   2.677
 4043SOL     OW12720   6.787   3.473   1.893
 4043SOL    HW112721   6.783   3.381   1.922
 4043SOL    HW212722   6.724   3.477   1.821
 4044SOL     OW12723   6.408   2.867   3.231
 4044SOL    HW112724   6.450   2.867   3.145
 4044SOL    HW212725   6.414   2.958   3.261
 4045SOL     OW12726   6.502   2.772   2.151
 4045SOL    HW112727   6.564   2.804   2.086
 4045SOL    HW212728   6.545   2.697   2.192
 4046SOL     OW12729   7.089   3.483   1.905
 4046SOL    HW112730   6.994   3.491   1.902
 4046SOL    HW212731   7.117   3.489   1.813
 4047SOL     OW12732   5.958   3.161   3.368
 4047SOL    HW112733   5.946   3.238   3.312
 4047SOL    HW212734   5.884   3.104   3.347
 4048SOL     OW12735   7.208   3.150   3.147
 4048SOL    HW112736   7.257   3.144   3.229
 4048SOL    HW212737   7.142   3.217   3.163
 4049SOL     OW12738   6.628   2.963   2.564
 4049SOL    HW112739   6.560   2.912   2.607
 4049SOL    HW212740   6.686   2.898   2.525
 4050SOL     OW12741   6.603   2.101   2.828
 4050SOL    HW112742   6.595   2.055   2.745
 4050SOL    HW212743   6.598   2.031   2.894
 4051SOL     OW12744   6.185   3.353   2.348
 4051SOL    HW112745   6.218   3.297   2.277
 4051SOL    HW212746   6.126   3.415   2.304
 4052SOL     OW12747   7.296   2.251   3.239
 4052SOL    HW112748   7.370   2.311   3.250
 4052SOL    HW212749   7.332   2.179   3.186
 4053SOL     OW12750   5.842   3.213   2.147
 4053SOL    HW112751   5.749   3.210   2.128
 4053SOL    HW212752   5.847   3.250   2.235
 4054SOL     OW12753   5.700   2.862   0.026
 4054SOL    HW112754   5.621   2.854   0.079
 4054SOL    HW212755   5.772   2.852   0.088
 4055SOL     OW12756   6.256   2.055   3.361
 4055SOL    HW112757   6.339   2.044   3.314
 4055SOL    HW212758   6.281   2.085   3.448
 4056SOL     OW12759   5.661   2.205   1.898
 4056SOL    HW112760   5.575   2.180   1.864
 4056SOL    HW212761   5.688   2.278   1.842
 4057SOL     OW12762   7.019   2.713   3.263
 4057SOL    HW112763   6.972   2.775   3.207
 4057SOL    HW212764   7.111   2.725   3.240
 4058SOL     OW12765   5.658   2.023   2.179
 4058SOL    HW112766   5.642   2.102   2.127
 4058SOL    HW212767   5.744   1.993   2.150
 4059SOL     OW12768   6.767   3.206   1.979
 4059SOL    HW112769   6.676   3.179   1.985
 4059SOL    HW212770   6.798   3.205   2.070
 4060SOL     OW12771   6.201   2.698   3.292
 4060SOL    HW112772   6.256   2.775   3.278
 4060SOL    HW212773   6.263   2.625   3.300
 4061SOL     OW12774   7.075   3.632   2.829
 4061SOL    HW112775   7.107   3.690   2.759
 4061SOL    HW212776   7.149   3.623   2.889
 4062SOL     OW12777   6.307   2.431   0.018
 4062SOL    HW112778   6.317   2.490   0.093
 4062SOL    HW212779   6.356   2.352   0.043
 4063SOL     OW12780   5.975   3.601   3.422
 4063SOL    HW112781   5.889   3.644   3.418
 4063SOL    HW212782   5.958   3.517   3.463
 4064SOL     OW12783   7.258   2.745   3.118
 4064SOL    HW112784   7.245   2.660   3.076
 4064SOL    HW212785   7.255   2.808   3.046
 4065SOL     OW12786   6.808   2.184   2.316
 4065SOL    HW112787   6.873   2.113   2.307
 4065SOL    HW212788   6.834   2.230   2.396
 4066SOL     OW12789   6.180   2.606   2.522
 4066SOL    HW112790   6.221   2.690   2.503
 4066SOL    HW212791   6.103   2.603   2.465
 4067SOL     OW12792   7.330   2.796   3.377
 4067SOL    HW112793   7.336   2.891   3.389
 4067SOL    HW212794   7.313   2.785   3.283
 4068SOL     OW12795   6.447   3.233   1.884
 4068SOL    HW112796   6.406   3.255   1.968
 4068SOL    HW212797   6.474   3.317   1.848
 4069SOL     OW12798   6.244   3.657   2.816
 4069SOL    HW112799   6.216   3.745   2.791
 4069SOL    HW212800   6.339   3.658   2.805
 4070SOL     OW12801   6.449   2.823   2.720
 4070SOL    HW112802   6.500   2.755   2.765
 4070SOL    HW212803   6.419   2.880   2.791
 4071SOL     OW12804   6.666   2.848   1.950
 4071SOL    HW112805   6.647   2.898   1.871
 4071SOL    HW212806   6.744   2.797   1.927
 4072SOL     OW12807   7.452   3.431   2.712
 4072SOL    HW112808   7.378   3.421   2.652
 4072SOL    HW212809   7.442   3.360   2.775
 4073SOL     OW12810   5.669   3.102   2.521
 4073SOL    HW112811   5.667   3.051   2.602
 4073SOL    HW212812   5.741   3.064   2.471
 4074SOL     OW12813   6.238   3.255   3.467
 4074SOL    HW112814   6.175   3.203   3.516
 4074SOL    HW212815   6.239   3.340   3.512
 4075SOL     OW12816   7.404   2.050   3.098
 4075SOL    HW112817   7.407   1.957   3.120
 4075SOL    HW212818   7.416   2.053   3.003
 4076SOL     OW12819   6.016   2.292   2.384
 4076SOL    HW112820   6.042   2.219   2.327
 4076SOL    HW212821   5.973   2.251   2.458
 4077SOL     OW12822   7.291   3.354   2.967
 4077SOL    HW112823   7.207   3.325   2.930
 4077SOL    HW212824   7.309   3.292   3.038
 4078SOL     OW12825   5.908   2.411   3.148
 4078SOL    HW112826   5.959   2.355   3.207
 4078SOL    HW212827   5.937   2.385   3.061
 4079SOL     OW12828   6.406   3.441   2.546
 4079SOL    HW112829   6.415   3.469   2.455
 4079SOL    HW212830   6.325   3.390   2.548
 4080SOL     OW12831   7.016   2.081   2.979
 4080SOL    HW112832   7.055   2.011   3.031
 4080SOL    HW212833   6.965   2.132   3.041
 4081SOL     OW12834   6.590   1.888   3.013
 4081SOL    HW112835   6.535   1.818   2.978
 4081SOL    HW212836   6.679   1.852   3.013
 4082SOL     OW12837   6.357   3.193   2.166
 4082SOL    HW112838   6.318   3.107   2.177
 4082SOL    HW212839   6.441   3.188   2.212
 4083SOL     OW12840   6.205   3.426   3.144
 4083SOL    HW112841   6.208   3.505   3.198
 4083SOL    HW212842   6.292   3.420   3.105
 4084SOL     OW12843   6.939   1.914   2.027
 4084SOL    HW112844   6.963   1.866   1.948
 4084SOL    HW212845   6.853   1.881   2.051
 4085SOL     OW12846   6.884   2.319   2.549
 4085SOL    HW112847   6.829   2.396   2.558
 4085SOL    HW212848   6.888   2.281   2.636
 4086SOL     OW12849   7.179   2.074   2.742
 4086SOL    HW112850   7.104   2.085   2.801
 4086SOL    HW212851   7.178   2.153   2.687
 4087SOL     OW12852   5.628   2.939   2.165
 4087SOL    HW112853   5.722   2.926   2.151
 4087SOL    HW212854   5.596   2.852   2.189
 4088SOL     OW12855   6.462   3.506   2.208
 4088SOL    HW112856   6.392   3.487   2.146
 4088SOL    HW212857   6.432   3.584   2.255
 4089SOL     OW12858   5.817   4.340   0.130
 4089SOL    HW112859   5.725   4.348   0.153
 4089SOL    HW212860   5.817   4.320   0.036
 4090SOL     OW12861   5.810   4.000   0.990
 4090SOL    HW112862   5.841   3.976   1.077
 4090SOL    HW212863   5.722   3.964   0.984
 4091SOL     OW12864   5.596   4.103   0.639
 4091SOL    HW112865   5.514   4.127   0.682
 4091SOL    HW212866   5.575   4.024   0.590
 4092SOL     OW12867   6.153   4.999   1.169
 4092SOL    HW112868   6.065   5.000   1.130
 4092SOL    HW212869   6.165   5.088   1.204
 4093SOL     OW12870   7.143   5.236   0.701
 4093SOL    HW112871   7.092   5.222   0.781
 4093SOL    HW212872   7.078   5.249   0.632
 4094SOL     OW12873   6.715   4.425   0.710
 4094SOL    HW112874   6.769   4.503   0.693
 4094SOL    HW212875   6.667   4.446   0.790
 4095SOL     OW12876   7.350   4.330   0.231
 4095SOL    HW112877   7.320   4.327   0.141
 4095SOL    HW212878   7.311   4.253   0.273
 4096SOL     OW12879   6.350   4.869   1.032
 4096SOL    HW112880   6.277   4.899   1.086
 4096SOL    HW212881   6.381   4.949   0.988
 4097SOL     OW12882   6.440   4.515   1.821
 4097SOL    HW112883   6.433   4.587   1.883
 4097SOL    HW212884   6.464   4.556   1.738
 4098SOL     OW12885   6.272   4.736   0.655
 4098SOL    HW112886   6.335   4.718   0.725
 4098SOL    HW212887   6.202   4.785   0.698
 4099SOL     OW12888   6.286   4.879   1.804
 4099SOL    HW112889   6.334   4.959   1.825
 4099SOL    HW212890   6.201   4.910   1.772
 4100SOL     OW12891   5.918   5.155   1.068
 4100SOL    HW112892   5.846   5.125   1.013
 4100SOL    HW212893   5.972   5.208   1.010
 4101SOL     OW12894   7.051   5.225   1.347
 4101SOL    HW112895   7.063   5.319   1.363
 4101SOL    HW212896   7.014   5.191   1.428
 4102SOL     OW12897   6.028   4.120   1.495
 4102SOL    HW112898   6.104   4.063   1.501
 4102SOL    HW212899   5.953   4.062   1.504
 4103SOL     OW12900   7.194   4.172   0.738
 4103SOL    HW112901   7.121   4.210   0.688
 4103SOL    HW212902   7.231   4.246   0.786
 4104SOL     OW12903   6.716   5.066   1.689
 4104SOL    HW112904   6.759   5.063   1.775
 4104SOL    HW212905   6.665   4.985   1.685
 4105SOL     OW12906   5.808   5.166   0.530
 4105SOL    HW112907   5.792   5.257   0.555
 4105SOL    HW212908   5.751   5.115   0.588
 4106SOL     OW12909   5.833   4.814   0.887
 4106SOL    HW112910   5.836   4.731   0.935
 4106SOL    HW212911   5.777   4.871   0.940
 4107SOL     OW12912   6.182   4.694   0.135
 4107SOL    HW112913   6.202   4.760   0.069
 4107SOL    HW212914   6.235   4.719   0.211
 4108SOL     OW12915   7.181   3.840   1.473
 4108SOL    HW112916   7.167   3.914   1.415
 4108SOL    HW212917   7.176   3.876   1.561
 4109SOL     OW12918   5.703   4.371   0.561
 4109SOL    HW112919   5.670   4.284   0.580
 4109SOL    HW212920   5.694   4.419   0.643
 4110SOL     OW12921   5.606   5.335   0.144
 4110SOL    HW112922   5.590   5.241   0.156
 4110SOL    HW212923   5.577   5.375   0.226
 4111SOL     OW12924   7.277   4.641   0.627
 4111SOL    HW112925   7.368   4.614   0.617
 4111SOL    HW212926   7.259   4.696   0.551
 4112SOL     OW12927   7.232   4.829   0.434
 4112SOL    HW112928   7.312   4.845   0.384
 4112SOL    HW212929   7.238   4.890   0.508
 4113SOL     OW12930   5.705   4.463   1.589
 4113SOL    HW112931   5.794   4.471   1.624
 4113SOL    HW212932   5.672   4.553   1.587
 4114SOL     OW12933   6.195   5.099   0.734
 4114SOL    HW112934   6.150   5.015   0.740
 4114SOL    HW212935   6.179   5.129   0.644
 4115SOL     OW12936   6.879   4.961   1.424
 4115SOL    HW112937   6.912   4.892   1.368
 4115SOL    HW212938   6.930   4.953   1.505
 4116SOL     OW12939   6.394   3.722   0.500
 4116SOL    HW112940   6.435   3.809   0.493
 4116SOL    HW212941   6.301   3.741   0.513
 4117SOL     OW12942   5.781   4.697   1.265
 4117SOL    HW112943   5.864   4.652   1.250
 4117SOL    HW212944   5.714   4.635   1.236
 4118SOL     OW12945   7.111   4.721   0.195
 4118SOL    HW112946   7.049   4.652   0.218
 4118SOL    HW212947   7.153   4.744   0.278
 4119SOL     OW12948   5.910   3.976   1.798
 4119SOL    HW112949   5.966   4.052   1.815
 4119SOL    HW212950   5.825   4.000   1.835
 4120SOL     OW12951   7.048   5.145   0.954
 4120SOL    HW112952   6.983   5.151   1.024
 4120SOL    HW212953   7.040   5.056   0.921
 4121SOL     OW12954   6.183   4.450   0.261
 4121SOL    HW112955   6.195   4.528   0.207
 4121SOL    HW212956   6.117   4.476   0.326
 4122SOL     OW12957   6.868   4.067   0.933
 4122SOL    HW112958   6.780   4.030   0.938
 4122SOL    HW212959   6.918   4.017   0.998
 4123SOL     OW12960   7.172   5.376   0.305
 4123SOL    HW112961   7.248   5.434   0.303
 4123SOL    HW212962   7.145   5.367   0.214
 4124SOL     OW12963   6.385   4.336   1.457
 4124SOL    HW112964   6.352   4.319   1.545
 4124SOL    HW212965   6.337   4.274   1.402
 4125SOL     OW12966   6.979   4.196   1.677
 4125SOL    HW112967   6.974   4.239   1.762
 4125SOL    HW212968   7.049   4.131   1.687
 4126SOL     OW12969   6.550   4.614   1.578
 4126SOL    HW112970   6.602   4.541   1.546
 4126SOL    HW212971   6.503   4.645   1.501
 4127SOL     OW12972   6.578   4.136   1.241
 4127SOL    HW112973   6.499   4.163   1.287
 4127SOL    HW212974   6.546   4.087   1.165
 4128SOL     OW12975   6.633   4.424   0.428
 4128SOL    HW112976   6.647   4.418   0.523
 4128SOL    HW212977   6.551   4.377   0.413
 4129SOL     OW12978   5.672   4.542   0.775
 4129SOL    HW112979   5.757   4.532   0.817
 4129SOL    HW212980   5.636   4.622   0.813
 4130SOL     OW12981   5.702   0.068   1.573
 4130SOL    HW112982   5.703   0.061   1.669
 4130SOL    HW212983   5.619   0.110   1.553
 4131SOL     OW12984   6.454   4.078   0.189
 4131SOL    HW112985   6.523   4.125   0.142
 4131SOL    HW212986   6.468   3.986   0.167
 4132SOL     OW12987   7.301   4.306   1.830
 4132SOL    HW112988   7.270   4.386   1.789
 4132SOL    HW212989   7.313   4.245   1.758
 4133SOL     OW12990   6.956   4.868   0.544
 4133SOL    HW112991   7.033   4.847   0.490
 4133SOL    HW212992   6.906   4.930   0.491
 4134SOL     OW12993   6.133   3.914   0.889
 4134SOL    HW112994   6.135   3.930   0.983
 4134SOL    HW212995   6.139   4.000   0.849
 4135SOL     OW12996   6.595   5.182   0.474
 4135SOL    HW112997   6.544   5.252   0.432
 4135SOL    HW212998   6.582   5.195   0.568
 4136SOL     OW12999   7.389   4.793   0.870
 4136SOL    HW113000   7.327   4.775   0.799
 4136SOL    HW213001   7.334   4.799   0.948
 4137SOL     OW13002   6.815   5.268   1.507
 4137SOL    HW113003   6.807   5.195   1.568
 4137SOL    HW213004   6.759   5.244   1.433
 4138SOL     OW13005   5.901   4.675   0.224
 4138SOL    HW113006   5.990   4.696   0.197
 4138SOL    HW213007   5.891   4.581   0.206
 4139SOL     OW13008   7.054   4.457   0.727
 4139SOL    HW113009   7.043   4.407   0.808
 4139SOL    HW213010   7.128   4.515   0.745
 4140SOL     OW13011   6.049   4.986   1.735
 4140SOL    HW113012   6.014   4.993   1.646
 4140SOL    HW213013   5.971   4.982   1.791
 4141SOL     OW13014   5.784   4.007   1.497
 4141SOL    HW113015   5.706   4.061   1.491
 4141SOL    HW213016   5.772   3.957   1.578
 4142SOL     OW13017   7.218   5.105   0.096
 4142SOL    HW113018   7.179   5.185   0.060
 4142SOL    HW213019   7.156   5.036   0.072
 4143SOL     OW13020   6.987   3.832   0.428
 4143SOL    HW113021   6.972   3.805   0.337
 4143SOL    HW213022   7.082   3.842   0.434
 4144SOL     OW13023   5.971   4.421   0.478
 4144SOL    HW113024   6.003   4.331   0.482
 4144SOL    HW213025   5.879   4.415   0.503
 4145SOL     OW13026   7.127   3.952   1.725
 4145SOL    HW113027   7.133   3.974   1.818
 4145SOL    HW213028   7.062   3.882   1.721
 4146SOL     OW13029   6.201   3.841   0.114
 4146SOL    HW113030   6.294   3.822   0.120
 4146SOL    HW213031   6.176   3.815   0.026
 4147SOL     OW13032   6.359   3.993   1.749
 4147SOL    HW113033   6.427   3.932   1.775
 4147SOL    HW213034   6.301   4.000   1.825
 4148SOL     OW13035   6.467   5.240   1.184
 4148SOL    HW113036   6.449   5.197   1.101
 4148SOL    HW213037   6.529   5.181   1.228
 4149SOL     OW13038   6.930   4.313   1.432
 4149SOL    HW113039   6.961   4.278   1.516
 4149SOL    HW213040   6.964   4.403   1.430
 4150SOL     OW13041   6.395   5.125   0.932
 4150SOL    HW113042   6.477   5.130   0.884
 4150SOL    HW213043   6.328   5.122   0.863
 4151SOL     OW13044   6.511   4.231   0.903
 4151SOL    HW113045   6.487   4.220   0.811
 4151SOL    HW213046   6.550   4.147   0.928
 4152SOL     OW13047   6.132   3.786   0.510
 4152SOL    HW113048   6.051   3.789   0.561
 4152SOL    HW213049   6.129   3.865   0.455
 4153SOL     OW13050   7.013   4.921   0.034
 4153SOL    HW113051   7.049   4.848   0.084
 4153SOL    HW213052   6.928   4.938   0.074
 4154SOL     OW13053   5.878   3.767   0.182
 4154SOL    HW113054   5.936   3.837   0.150
 4154SOL    HW213055   5.938   3.700   0.215
 4155SOL     OW13056   6.520   3.963   0.471
 4155SOL    HW113057   6.486   4.006   0.393
 4155SOL    HW213058   6.615   3.972   0.464
 4156SOL     OW13059   6.665   4.403   1.461
 4156SOL    HW113060   6.592   4.341   1.467
 4156SOL    HW213061   6.742   4.348   1.448
 4157SOL     OW13062   6.819   5.282   0.787
 4157SOL    HW113063   6.824   5.365   0.740
 4157SOL    HW213064   6.877   5.295   0.863
 4158SOL     OW13065   6.049   4.869   0.741
 4158SOL    HW113066   5.976   4.852   0.800
 4158SOL    HW213067   6.015   4.851   0.654
 4159SOL     OW13068   6.606   4.268   0.034
 4159SOL    HW113069   6.588   4.348  -0.016
 4159SOL    HW213070   6.682   4.290   0.088
 4160SOL     OW13071   5.660   4.280   1.389
 4160SOL    HW113072   5.750   4.279   1.357
 4160SOL    HW213073   5.658   4.350   1.454
 4161SOL     OW13074   6.150   3.949   1.157
 4161SOL    HW113075   6.184   3.867   1.194
 4161SOL    HW213076   6.060   3.954   1.189
 4162SOL     OW13077   6.456   4.181   0.641
 4162SOL    HW113078   6.414   4.240   0.578
 4162SOL    HW213079   6.474   4.102   0.591
 4163SOL     OW13080   6.600   3.773   0.755
 4163SOL    HW113081   6.538   3.766   0.683
 4163SOL    HW213082   6.581   3.698   0.811
 4164SOL     OW13083   7.020   4.890   0.861
 4164SOL    HW113084   6.957   4.819   0.857
 4164SOL    HW213085   7.039   4.912   0.770
 4165SOL     OW13086   7.056   4.321   0.988
 4165SOL    HW113087   7.016   4.234   0.995
 4165SOL    HW213088   7.120   4.323   1.059
 4166SOL     OW13089   7.447   4.553   0.376
 4166SOL    HW113090   7.492   4.493   0.434
 4166SOL    HW213091   7.408   4.497   0.309
 4167SOL     OW13092   6.079   5.118   0.159
 4167SOL    HW113093   6.008   5.093   0.219
 4167SOL    HW213094   6.034   5.139   0.077
 4168SOL     OW13095   7.257   4.995   0.653
 4168SOL    HW113096   7.350   5.009   0.673
 4168SOL    HW213097   7.216   5.079   0.675
 4169SOL     OW13098   6.970   4.297   0.071
 4169SOL    HW113099   6.920   4.276   0.151
 4169SOL    HW213100   7.057   4.261   0.087
 4170SOL     OW13101   6.114   3.985   0.327
 4170SOL    HW113102   6.145   3.931   0.254
 4170SOL    HW213103   6.103   4.072   0.289
 4171SOL     OW13104   7.342   4.953   1.579
 4171SOL    HW113105   7.431   4.917   1.580
 4171SOL    HW213106   7.352   5.043   1.611
 4172SOL     OW13107   6.651   5.078   1.339
 4172SOL    HW113108   6.575   5.045   1.386
 4172SOL    HW213109   6.726   5.036   1.381
 4173SOL     OW13110   7.180   5.342   1.632
 4173SOL    HW113111   7.195   5.398   1.556
 4173SOL    HW213112   7.267   5.309   1.654
 4174SOL     OW13113   6.704   4.922   1.107
 4174SOL    HW113114   6.650   4.963   1.174
 4174SOL    HW213115   6.668   4.954   1.024
 4175SOL     OW13116   7.221   4.824   1.079
 4175SOL    HW113117   7.220   4.893   1.146
 4175SOL    HW213118   7.138   4.835   1.032
 4176SOL     OW13119   6.503   3.821   1.402
 4176SOL    HW113120   6.526   3.801   1.312
 4176SOL    HW213121   6.580   3.864   1.439
 4177SOL     OW13122   6.569   4.838   1.719
 4177SOL    HW113123   6.475   4.848   1.734
 4177SOL    HW213124   6.576   4.760   1.664
 4178SOL     OW13125   6.293   4.781   0.372
 4178SOL    HW113126   6.282   4.773   0.467
 4178SOL    HW213127   6.371   4.728   0.353
 4179SOL     OW13128   6.000   4.536   1.250
 4179SOL    HW113129   6.072   4.547   1.312
 4179SOL    HW213130   5.963   4.450   1.271
 4180SOL     OW13131   6.857   4.106   1.267
 4180SOL    HW113132   6.884   4.182   1.318
 4180SOL    HW213133   6.770   4.128   1.234
 4181SOL     OW13134   5.650   5.293   1.343
 4181SOL    HW113135   5.611   5.363   1.291
 4181SOL    HW213136   5.744   5.310   1.340
 4182SOL     OW13137   5.943   4.827   0.496
 4182SOL    HW113138   5.948   4.902   0.437
 4182SOL    HW213139   5.951   4.751   0.439
 4183SOL     OW13140   6.147   4.262   0.863
 4183SOL    HW113141   6.164   4.322   0.791
 4183SOL    HW213142   6.201   4.295   0.935
 4184SOL     OW13143   6.834   5.071   0.392
 4184SOL    HW113144   6.885   5.145   0.424
 4184SOL    HW213145   6.745   5.087   0.423
 4185SOL     OW13146   6.860   5.174   1.146
 4185SOL    HW113147   6.908   5.176   1.228
 4185SOL    HW213148   6.802   5.098   1.154
 4186SOL     OW13149   7.172   4.357   0.475
 4186SOL    HW113150   7.132   4.416   0.538
 4186SOL    HW213151   7.211   4.414   0.409
 4187SOL     OW13152   5.937   5.236   1.325
 4187SOL    HW113153   5.921   5.199   1.238
 4187SOL    HW213154   6.030   5.258   1.325
 4188SOL     OW13155   5.995   4.472   1.601
 4188SOL    HW113156   6.057   4.518   1.544
 4188SOL    HW213157   6.037   4.387   1.618
 4189SOL     OW13158   7.176   4.499   1.674
 4189SOL    HW113159   7.090   4.540   1.666
 4189SOL    HW213160   7.230   4.544   1.609
 4190SOL     OW13161   6.586   3.833   1.762
 4190SOL    HW113162   6.622   3.910   1.719
 4190SOL    HW213163   6.636   3.760   1.726
 4191SOL     OW13164   6.088   3.773   1.743
 4191SOL    HW113165   6.048   3.717   1.676
 4191SOL    HW213166   6.021   3.840   1.761
 4192SOL     OW13167   6.165   4.594   1.031
 4192SOL    HW113168   6.198   4.684   1.024
 4192SOL    HW213169   6.106   4.595   1.106
 4193SOL     OW13170   6.948   4.585   1.040
 4193SOL    HW113171   6.871   4.581   0.983
 4193SOL    HW213172   6.980   4.495   1.043
 4194SOL     OW13173   6.796   4.251   0.274
 4194SOL    HW113174   6.803   4.173   0.329
 4194SOL    HW213175   6.759   4.318   0.332
 4195SOL     OW13176   5.890   3.931   1.241
 4195SOL    HW113177   5.859   3.964   1.325
 4195SOL    HW213178   5.866   3.838   1.240
 4196SOL     OW13179   5.629   5.032   1.279
 4196SOL    HW113180   5.670   4.985   1.352
 4196SOL    HW213181   5.642   5.125   1.300
 4197SOL     OW13182   6.316   4.358   1.063
 4197SOL    HW113183   6.381   4.337   0.997
 4197SOL    HW213184   6.288   4.447   1.042
 4198SOL     OW13185   7.321   4.679   1.851
 4198SOL    HW113186   7.272   4.641   1.778
 4198SOL    HW213187   7.256   4.693   1.920
 4199SOL     OW13188   5.887   3.791   0.622
 4199SOL    HW113189   5.874   3.881   0.652
 4199SOL    HW213190   5.889   3.739   0.702
 4200SOL     OW13191   7.197   4.093   0.371
 4200SOL    HW113192   7.221   4.029   0.438
 4200SOL    HW213193   7.170   4.170   0.421
 4201SOL     OW13194   6.611   4.487   0.965
 4201SOL    HW113195   6.618   4.504   1.059
 4201SOL    HW213196   6.584   4.395   0.959
 4202SOL     OW13197   6.567   5.294   1.700
 4202SOL    HW113198   6.547   5.332   1.614
 4202SOL    HW213199   6.609   5.210   1.681
 4203SOL     OW13200   7.447   5.241   1.603
 4203SOL    HW113201   7.470   5.263   1.513
 4203SOL    HW213202   7.524   5.264   1.654
 4204SOL     OW13203   5.937   4.638   1.805
 4204SOL    HW113204   6.019   4.658   1.850
 4204SOL    HW213205   5.962   4.578   1.735
 4205SOL     OW13206   7.125   3.999   0.123
 4205SOL    HW113207   7.062   3.930   0.146
 4205SOL    HW213208   7.151   4.037   0.207
 4206SOL     OW13209   6.889   4.555   0.035
 4206SOL    HW113210   6.921   4.465   0.043
 4206SOL    HW213211   6.905   4.578  -0.056
 4207SOL     OW13212   6.655   5.055   0.853
 4207SOL    HW113213   6.657   4.983   0.791
 4207SOL    HW213214   6.714   5.121   0.815
 4208SOL     OW13215   5.900   4.536   0.950
 4208SOL    HW113216   5.993   4.559   0.948
 4208SOL    HW213217   5.898   4.449   0.991
 4209SOL     OW13218   5.922   4.240   1.008
 4209SOL    HW113219   5.883   4.154   0.990
 4209SOL    HW213220   5.997   4.245   0.949
 4210SOL     OW13221   6.722   4.106   1.676
 4210SOL    HW113222   6.680   4.161   1.742
 4210SOL    HW213223   6.811   4.138   1.671
 4211SOL     OW13224   6.745   3.929   1.471
 4211SOL    HW113225   6.740   3.991   1.544
 4211SOL    HW213226   6.778   3.981   1.398
 4212SOL     OW13227   5.590   5.054   0.198
 4212SOL    HW113228   5.500   5.065   0.165
 4212SOL    HW213229   5.597   4.961   0.219
 4213SOL     OW13230   6.092   5.290   0.913
 4213SOL    HW113231   6.152   5.365   0.908
 4213SOL    HW213232   6.133   5.223   0.858
 4214SOL     OW13233   6.582   4.521   1.232
 4214SOL    HW113234   6.627   4.492   1.311
 4214SOL    HW213235   6.492   4.488   1.242
 4215SOL     OW13236   5.623   4.265   1.116
 4215SOL    HW113237   5.706   4.243   1.073
 4215SOL    HW213238   5.646   4.277   1.208
 4216SOL     OW13239   5.777   4.241   1.723
 4216SOL    HW113240   5.833   4.208   1.653
 4216SOL    HW213241   5.722   4.308   1.681
 4217SOL     OW13242   6.960   4.669   1.660
 4217SOL    HW113243   6.984   4.761   1.667
 4217SOL    HW213244   6.961   4.650   1.566
 4218SOL     OW13245   6.401   4.294   0.344
 4218SOL    HW113246   6.403   4.216   0.289
 4218SOL    HW213247   6.318   4.336   0.322
 4219SOL     OW13248   7.238   4.323   1.192
 4219SOL    HW113249   7.217   4.264   1.264
 4219SOL    HW213250   7.326   4.297   1.164
 4220SOL     OW13251   5.841   5.282   1.741
 4220SOL    HW113252   5.809   5.340   1.810
 4220SOL    HW213253   5.830   5.194   1.776
 4221SOL     OW13254   6.270   4.183   1.267
 4221SOL    HW113255   6.226   4.105   1.233
 4221SOL    HW213256   6.277   4.241   1.191
 4222SOL     OW13257   6.056   4.218   0.198
 4222SOL    HW113258   6.112   4.296   0.202
 4222SOL    HW213259   5.967   4.253   0.190
 4223SOL     OW13260   5.738   4.862   1.468
 4223SOL    HW113261   5.754   4.805   1.543
 4223SOL    HW213262   5.754   4.807   1.392
 4224SOL     OW13263   6.923   4.777   1.230
 4224SOL    HW113264   6.948   4.717   1.159
 4224SOL    HW213265   6.845   4.821   1.197
 4225SOL     OW13266   6.892   4.572   0.311
 4225SOL    HW113267   6.808   4.551   0.351
 4225SOL    HW213268   6.876   4.569   0.217
 4226SOL     OW13269   7.339   5.450   1.143
 4226SOL    HW113270   7.390   5.477   1.067
 4226SOL    HW213271   7.313   5.360   1.124
 4227SOL     OW13272   6.835   5.441   1.125
 4227SOL    HW113273   6.917   5.462   1.080
 4227SOL    HW213274   6.838   5.346   1.137
 4228SOL     OW13275   5.671   4.984   1.018
 4228SOL    HW113276   5.658   4.993   1.113
 4228SOL    HW213277   5.591   4.941   0.987
 4229SOL     OW13278   6.492   3.815   0.129
 4229SOL    HW113279   6.540   3.802   0.047
 4229SOL    HW213280   6.541   3.765   0.194
 4230SOL     OW13281   7.304   3.859   0.515
 4230SOL    HW113282   7.381   3.843   0.461
 4230SOL    HW213283   7.286   3.775   0.557
 4231SOL     OW13284   6.974   5.295   0.480
 4231SOL    HW113285   7.043   5.307   0.415
 4231SOL    HW213286   6.939   5.383   0.495
 4232SOL     OW13287   5.701   0.061   1.840
 4232SOL    HW113288   5.663  -0.010   1.893
 4232SOL    HW213289   5.768   0.099   1.896
 4233SOL     OW13290   6.863   4.647   0.671
 4233SOL    HW113291   6.934   4.582   0.672
 4233SOL    HW213292   6.898   4.719   0.619
 4234SOL     OW13293   6.411   4.995   1.430
 4234SOL    HW113294   6.391   5.031   1.516
 4234SOL    HW213295   6.333   5.015   1.377
 4235SOL     OW13296   6.279   5.315   0.148
 4235SOL    HW113297   6.244   5.351   0.066
 4235SOL    HW213298   6.214   5.250   0.175
 4236SOL     OW13299   7.433   3.892   0.968
 4236SOL    HW113300   7.466   3.814   0.924
 4236SOL    HW213301   7.345   3.904   0.932
 4237SOL     OW13302   5.854   4.045   0.720
 4237SOL    HW113303   5.771   4.084   0.691
 4237SOL    HW213304   5.843   4.034   0.815
 4238SOL     OW13305   6.747   5.340   0.059
 4238SOL    HW113306   6.771   5.250   0.080
 4238SOL    HW213307   6.750   5.345  -0.037
 4239SOL     OW13308   6.411   4.729   1.372
 4239SOL    HW113309   6.450   4.728   1.285
 4239SOL    HW213310   6.415   4.820   1.399
 4240SOL     OW13311   6.502   4.634   0.289
 4240SOL    HW113312   6.564   4.669   0.225
 4240SOL    HW213313   6.547   4.560   0.329
 4241SOL     OW13314   5.956   5.018   1.492
 4241SOL    HW113315   5.943   5.101   1.445
 4241SOL    HW213316   5.878   4.967   1.474
 4242SOL     OW13317   7.206   5.012   1.286
 4242SOL    HW113318   7.257   5.009   1.367
 4242SOL    HW213319   7.139   5.079   1.303
 4243SOL     OW13320   6.628   4.825   0.701
 4243SOL    HW113321   6.560   4.774   0.745
 4243SOL    HW213322   6.686   4.760   0.662
 4244SOL     OW13323   6.603   3.963   0.966
 4244SOL    HW113324   6.596   3.916   0.883
 4244SOL    HW213325   6.598   3.894   1.032
 4245SOL     OW13326   6.174   5.203   0.486
 4245SOL    HW113327   6.220   5.163   0.413
 4245SOL    HW213328   6.144   5.288   0.453
 4246SOL     OW13329   7.302   4.114   1.380
 4246SOL    HW113330   7.375   4.176   1.379
 4246SOL    HW213331   7.331   4.042   1.324
 4247SOL     OW13332   5.845   5.076   0.286
 4247SOL    HW113333   5.753   5.068   0.262
 4247SOL    HW213334   5.844   5.113   0.374
 4248SOL     OW13335   5.695   4.738   1.723
 4248SOL    HW113336   5.621   4.712   1.776
 4248SOL    HW213337   5.772   4.703   1.769
 4249SOL     OW13338   6.256   3.921   1.495
 4249SOL    HW113339   6.341   3.906   1.453
 4249SOL    HW213340   6.277   3.941   1.586
 4250SOL     OW13341   5.654   4.066   0.037
 4250SOL    HW113342   5.564   4.049   0.010
 4250SOL    HW213343   5.679   4.145  -0.012
 4251SOL     OW13344   7.022   4.582   1.402
 4251SOL    HW113345   6.973   4.637   1.341
 4251SOL    HW213346   7.113   4.588   1.373
 4252SOL     OW13347   5.658   3.885   0.317
 4252SOL    HW113348   5.644   3.965   0.266
 4252SOL    HW213349   5.744   3.853   0.287
 4253SOL     OW13350   6.772   5.071   0.119
 4253SOL    HW113351   6.680   5.045   0.116
 4253SOL    HW213352   6.797   5.063   0.211
 4254SOL     OW13353   6.201   4.560   1.430
 4254SOL    HW113354   6.256   4.637   1.417
 4254SOL    HW213355   6.263   4.487   1.438
 4255SOL     OW13356   6.301   4.289   1.709
 4255SOL    HW113357   6.329   4.352   1.775
 4255SOL    HW213358   6.353   4.210   1.728
 4256SOL     OW13359   7.046   4.933   1.634
 4256SOL    HW113360   7.037   4.942   1.729
 4256SOL    HW213361   7.140   4.939   1.618
 4257SOL     OW13362   7.258   4.607   1.256
 4257SOL    HW113363   7.246   4.522   1.214
 4257SOL    HW213364   7.255   4.670   1.185
 4258SOL     OW13365   6.808   4.045   0.455
 4258SOL    HW113366   6.873   3.975   0.445
 4258SOL    HW213367   6.834   4.092   0.534
 4259SOL     OW13368   6.180   4.467   0.660
 4259SOL    HW113369   6.221   4.552   0.642
 4259SOL    HW213370   6.103   4.466   0.602
 4260SOL     OW13371   7.360   4.078   1.648
 4260SOL    HW113372   7.341   4.090   1.555
 4260SOL    HW213373   7.286   4.026   1.680
 4261SOL     OW13374   7.322   4.658   1.515
 4261SOL    HW113375   7.342   4.751   1.525
 4261SOL    HW213376   7.311   4.646   1.420
 4262SOL     OW13377   6.489   5.098   0.039
 4262SOL    HW113378   6.420   5.102   0.106
 4262SOL    HW213379   6.487   5.184  -0.003
 4263SOL     OW13380   6.448   4.684   0.858
 4263SOL    HW113381   6.500   4.617   0.903
 4263SOL    HW213382   6.419   4.743   0.928
 4264SOL     OW13383   6.683   4.726   0.100
 4264SOL    HW113384   6.633   4.738   0.019
 4264SOL    HW213385   6.751   4.663   0.077
 4265SOL     OW13386   7.453   5.289   0.845
 4265SOL    HW113387   7.373   5.285   0.793
 4265SOL    HW213388   7.441   5.224   0.914
 4266SOL     OW13389   5.809   5.032   1.852
 4266SOL    HW113390   5.742   4.969   1.828
 4266SOL    HW213391   5.798   5.044   1.946
 4267SOL     OW13392   5.670   4.964   0.659
 4267SOL    HW113393   5.668   4.914   0.740
 4267SOL    HW213394   5.742   4.925   0.609
 4268SOL     OW13395   6.263   5.120   1.621
 4268SOL    HW113396   6.186   5.074   1.653
 4268SOL    HW213397   6.253   5.210   1.654
 4269SOL     OW13398   7.402   3.913   1.235
 4269SOL    HW113399   7.408   3.821   1.259
 4269SOL    HW213400   7.415   3.914   1.140
 4270SOL     OW13401   6.016   4.155   0.522
 4270SOL    HW113402   6.042   4.082   0.465
 4270SOL    HW213403   5.973   4.112   0.596
 4271SOL     OW13404   7.294   5.197   1.094
 4271SOL    HW113405   7.204   5.177   1.066
 4271SOL    HW213406   7.306   5.146   1.174
 4272SOL     OW13407   5.908   4.272   1.287
 4272SOL    HW113408   5.959   4.216   1.346
 4272SOL    HW213409   5.937   4.247   1.199
 4273SOL     OW13410   6.413   5.283   0.686
 4273SOL    HW113411   6.411   5.340   0.609
 4273SOL    HW213412   6.326   5.244   0.690
 4274SOL     OW13413   7.016   3.943   1.117
 4274SOL    HW113414   7.054   3.873   1.169
 4274SOL    HW213415   6.964   3.994   1.179
 4275SOL     OW13416   6.591   3.750   1.150
 4275SOL    HW113417   6.536   3.680   1.117
 4275SOL    HW213418   6.679   3.714   1.151
 4276SOL     OW13419   6.355   5.053   0.304
 4276SOL    HW113420   6.318   4.965   0.319
 4276SOL    HW213421   6.441   5.050   0.347
 4277SOL     OW13422   6.206   5.294   1.284
 4277SOL    HW113423   6.213   5.370   1.342
 4277SOL    HW213424   6.293   5.284   1.246
 4278SOL     OW13425   6.938   3.776   0.167
 4278SOL    HW113426   6.965   3.733   0.086
 4278SOL    HW213427   6.852   3.739   0.187
 4279SOL     OW13428   6.884   4.181   0.686
 4279SOL    HW113429   6.829   4.259   0.696
 4279SOL    HW213430   6.888   4.143   0.774
 4280SOL     OW13431   7.178   3.936   0.880
 4280SOL    HW113432   7.104   3.947   0.939
 4280SOL    HW213433   7.178   4.015   0.825
 4281SOL     OW13434   5.626   4.800   0.303
 4281SOL    HW113435   5.721   4.792   0.296
 4281SOL    HW213436   5.597   4.714   0.333
 4282SOL     OW13437   5.817   4.351   1.979
 4282SOL    HW113438   5.726   4.349   2.011
 4282SOL    HW213439   5.811   4.318   1.890
 4283SOL     OW13440   5.810   4.000   2.852
 4283SOL    HW113441   5.840   3.976   2.940
 4283SOL    HW213442   5.722   3.964   2.846
 4284SOL     OW13443   5.596   4.103   2.500
 4284SOL    HW113444   5.514   4.127   2.545
 4284SOL    HW213445   5.575   4.024   2.452
 4285SOL     OW13446   6.153   5.000   3.030
 4285SOL    HW113447   6.065   5.000   2.992
 4285SOL    HW213448   6.164   5.087   3.067
 4286SOL     OW13449   7.143   5.236   2.563
 4286SOL    HW113450   7.092   5.222   2.643
 4286SOL    HW213451   7.078   5.249   2.495
 4287SOL     OW13452   6.715   4.425   2.571
 4287SOL    HW113453   6.769   4.503   2.555
 4287SOL    HW213454   6.667   4.445   2.652
 4288SOL     OW13455   7.343   4.334   2.097
 4288SOL    HW113456   7.331   4.322   2.003
 4288SOL    HW213457   7.312   4.251   2.136
 4289SOL     OW13458   6.351   4.870   2.894
 4289SOL    HW113459   6.278   4.898   2.948
 4289SOL    HW213460   6.381   4.949   2.850
 4290SOL     OW13461   6.273   4.737   2.517
 4290SOL    HW113462   6.335   4.718   2.588
 4290SOL    HW213463   6.202   4.785   2.560
 4291SOL     OW13464   5.918   5.156   2.930
 4291SOL    HW113465   5.846   5.125   2.875
 4291SOL    HW213466   5.972   5.208   2.872
 4292SOL     OW13467   7.053   5.225   3.206
 4292SOL    HW113468   7.064   5.319   3.222
 4292SOL    HW213469   7.017   5.191   3.287
 4293SOL     OW13470   6.030   4.121   3.352
 4293SOL    HW113471   6.104   4.060   3.360
 4293SOL    HW213472   5.952   4.066   3.364
 4294SOL     OW13473   7.194   4.172   2.600
 4294SOL    HW113474   7.121   4.210   2.550
 4294SOL    HW213475   7.231   4.246   2.648
 4295SOL     OW13476   5.808   5.165   2.391
 4295SOL    HW113477   5.793   5.256   2.417
 4295SOL    HW213478   5.752   5.115   2.450
 4296SOL     OW13479   5.833   4.814   2.749
 4296SOL    HW113480   5.835   4.731   2.797
 4296SOL    HW213481   5.777   4.871   2.802
 4297SOL     OW13482   6.181   4.698   1.990
 4297SOL    HW113483   6.213   4.762   1.927
 4297SOL    HW213484   6.228   4.718   2.071
 4298SOL     OW13485   7.178   3.841   3.342
 4298SOL    HW113486   7.171   3.913   3.279
 4298SOL    HW213487   7.176   3.884   3.428
 4299SOL     OW13488   5.704   4.371   2.423
 4299SOL    HW113489   5.669   4.283   2.442
 4299SOL    HW213490   5.694   4.419   2.505
 4300SOL     OW13491   5.604   5.318   1.982
 4300SOL    HW113492   5.598   5.225   2.005
 4300SOL    HW213493   5.589   5.364   2.065
 4301SOL     OW13494   7.277   4.642   2.489
 4301SOL    HW113495   7.368   4.614   2.479
 4301SOL    HW213496   7.259   4.695   2.412
 4302SOL     OW13497   7.231   4.831   2.294
 4302SOL    HW113498   7.314   4.842   2.247
 4302SOL    HW213499   7.238   4.890   2.369
 4303SOL     OW13500   5.704   4.460   3.449
 4303SOL    HW113501   5.793   4.471   3.481
 4303SOL    HW213502   5.669   4.549   3.444
 4304SOL     OW13503   6.195   5.099   2.595
 4304SOL    HW113504   6.150   5.015   2.602
 4304SOL    HW213505   6.179   5.129   2.506
 4305SOL     OW13506   6.886   4.962   3.296
 4305SOL    HW113507   6.912   4.894   3.235
 4305SOL    HW213508   6.935   4.943   3.376
 4306SOL     OW13509   6.393   3.722   2.362
 4306SOL    HW113510   6.435   3.808   2.355
 4306SOL    HW213511   6.301   3.741   2.376
 4307SOL     OW13512   5.781   4.698   3.125
 4307SOL    HW113513   5.864   4.651   3.112
 4307SOL    HW213514   5.714   4.635   3.100
 4308SOL     OW13515   7.118   4.716   2.054
 4308SOL    HW113516   7.049   4.653   2.077
 4308SOL    HW213517   7.154   4.743   2.138
 4309SOL     OW13518   7.048   5.145   2.816
 4309SOL    HW113519   6.983   5.151   2.886
 4309SOL    HW213520   7.040   5.056   2.783
 4310SOL     OW13521   6.181   4.449   2.126
 4310SOL    HW113522   6.197   4.525   2.070
 4310SOL    HW213523   6.114   4.479   2.188
 4311SOL     OW13524   6.868   4.068   2.796
 4311SOL    HW113525   6.780   4.030   2.799
 4311SOL    HW213526   6.918   4.017   2.859
 4312SOL     OW13527   7.173   5.375   2.169
 4312SOL    HW113528   7.249   5.433   2.167
 4312SOL    HW213529   7.144   5.370   2.078
 4313SOL     OW13530   6.388   4.334   3.318
 4313SOL    HW113531   6.353   4.321   3.406
 4313SOL    HW213532   6.337   4.275   3.262
 4314SOL     OW13533   6.555   4.619   3.432
 4314SOL    HW113534   6.600   4.542   3.397
 4314SOL    HW213535   6.499   4.649   3.360
 4315SOL     OW13536   6.577   4.135   3.105
 4315SOL    HW113537   6.497   4.165   3.147
 4315SOL    HW213538   6.547   4.088   3.027
 4316SOL     OW13539   6.633   4.424   2.290
 4316SOL    HW113540   6.647   4.418   2.385
 4316SOL    HW213541   6.551   4.376   2.275
 4317SOL     OW13542   5.672   4.542   2.637
 4317SOL    HW113543   5.757   4.531   2.679
 4317SOL    HW213544   5.636   4.622   2.675
 4318SOL     OW13545   5.706   0.064   3.444
 4318SOL    HW113546   5.692   0.061   3.539
 4318SOL    HW213547   5.627   0.103   3.409
 4319SOL     OW13548   6.459   4.069   2.055
 4319SOL    HW113549   6.512   4.128   2.003
 4319SOL    HW213550   6.483   3.981   2.024
 4320SOL     OW13551   6.956   4.867   2.406
 4320SOL    HW113552   7.034   4.848   2.353
 4320SOL    HW213553   6.906   4.930   2.353
 4321SOL     OW13554   6.134   3.914   2.751
 4321SOL    HW113555   6.135   3.931   2.845
 4321SOL    HW213556   6.138   4.000   2.711
 4322SOL     OW13557   6.595   5.182   2.335
 4322SOL    HW113558   6.545   5.253   2.294
 4322SOL    HW213559   6.582   5.195   2.429
 4323SOL     OW13560   7.389   4.794   2.731
 4323SOL    HW113561   7.327   4.774   2.661
 4323SOL    HW213562   7.334   4.799   2.810
 4324SOL     OW13563   6.811   5.265   3.357
 4324SOL    HW113564   6.818   5.186   3.412
 4324SOL    HW213565   6.754   5.238   3.285
 4325SOL     OW13566   5.907   4.675   2.105
 4325SOL    HW113567   5.990   4.698   2.062
 4325SOL    HW213568   5.880   4.593   2.063
 4326SOL     OW13569   7.054   4.458   2.589
 4326SOL    HW113570   7.043   4.407   2.669
 4326SOL    HW213571   7.128   4.515   2.607
 4327SOL     OW13572   5.789   4.001   3.352
 4327SOL    HW113573   5.714   4.058   3.335
 4327SOL    HW213574   5.770   3.961   3.436
 4328SOL     OW13575   7.223   5.102   1.951
 4328SOL    HW113576   7.185   5.185   1.922
 4328SOL    HW213577   7.155   5.037   1.933
 4329SOL     OW13578   6.987   3.832   2.289
 4329SOL    HW113579   6.971   3.803   2.200
 4329SOL    HW213580   7.082   3.842   2.295
 4330SOL     OW13581   5.972   4.421   2.342
 4330SOL    HW113582   6.003   4.331   2.345
 4330SOL    HW213583   5.879   4.415   2.365
 4331SOL     OW13584   6.206   3.850   1.974
 4331SOL    HW113585   6.292   3.809   1.981
 4331SOL    HW213586   6.171   3.818   1.891
 4332SOL     OW13587   6.468   5.240   3.046
 4332SOL    HW113588   6.448   5.197   2.963
 4332SOL    HW213589   6.528   5.181   3.090
 4333SOL     OW13590   6.929   4.313   3.302
 4333SOL    HW113591   6.969   4.283   3.383
 4333SOL    HW213592   6.964   4.400   3.288
 4334SOL     OW13593   6.395   5.125   2.794
 4334SOL    HW113594   6.477   5.131   2.746
 4334SOL    HW213595   6.328   5.122   2.726
 4335SOL     OW13596   6.511   4.231   2.765
 4335SOL    HW113597   6.487   4.221   2.673
 4335SOL    HW213598   6.550   4.147   2.790
 4336SOL     OW13599   6.132   3.786   2.372
 4336SOL    HW113600   6.051   3.788   2.423
 4336SOL    HW213601   6.128   3.865   2.318
 4337SOL     OW13602   7.017   4.920   1.902
 4337SOL    HW113603   7.048   4.845   1.954
 4337SOL    HW213604   6.930   4.938   1.937
 4338SOL     OW13605   5.881   3.766   2.041
 4338SOL    HW113606   5.937   3.837   2.011
 4338SOL    HW213607   5.941   3.703   2.081
 4339SOL     OW13608   6.520   3.963   2.334
 4339SOL    HW113609   6.486   4.007   2.256
 4339SOL    HW213610   6.615   3.970   2.325
 4340SOL     OW13611   6.665   4.402   3.323
 4340SOL    HW113612   6.592   4.339   3.321
 4340SOL    HW213613   6.743   4.349   3.309
 4341SOL     OW13614   6.820   5.282   2.649
 4341SOL    HW113615   6.823   5.366   2.602
 4341SOL    HW213616   6.877   5.295   2.725
 4342SOL     OW13617   6.050   4.869   2.603
 4342SOL    HW113618   5.976   4.852   2.662
 4342SOL    HW213619   6.015   4.850   2.516
 4343SOL     OW13620   6.616   4.273   1.877
 4343SOL    HW113621   6.576   4.356   1.853
 4343SOL    HW213622   6.677   4.295   1.948
 4344SOL     OW13623   5.662   4.276   3.254
 4344SOL    HW113624   5.751   4.278   3.220
 4344SOL    HW213625   5.658   4.349   3.316
 4345SOL     OW13626   6.151   3.950   3.021
 4345SOL    HW113627   6.182   3.865   3.053
 4345SOL    HW213628   6.060   3.954   3.050
 4346SOL     OW13629   6.456   4.182   2.503
 4346SOL    HW113630   6.414   4.240   2.440
 4346SOL    HW213631   6.474   4.102   2.454
 4347SOL     OW13632   6.600   3.773   2.618
 4347SOL    HW113633   6.538   3.766   2.545
 4347SOL    HW213634   6.581   3.698   2.673
 4348SOL     OW13635   7.020   4.891   2.723
 4348SOL    HW113636   6.957   4.818   2.719
 4348SOL    HW213637   7.039   4.911   2.632
 4349SOL     OW13638   7.055   4.321   2.850
 4349SOL    HW113639   7.017   4.233   2.856
 4349SOL    HW213640   7.121   4.323   2.920
 4350SOL     OW13641   7.443   4.554   2.240
 4350SOL    HW113642   7.493   4.494   2.295
 4350SOL    HW213643   7.408   4.498   2.170
 4351SOL     OW13644   6.078   5.128   2.029
 4351SOL    HW113645   6.002   5.098   2.078
 4351SOL    HW213646   6.050   5.124   1.937
 4352SOL     OW13647   7.257   4.995   2.514
 4352SOL    HW113648   7.350   5.008   2.535
 4352SOL    HW213649   7.216   5.079   2.537
 4353SOL     OW13650   6.978   4.297   1.934
 4353SOL    HW113651   6.923   4.277   2.010
 4353SOL    HW213652   7.064   4.261   1.958
 4354SOL     OW13653   6.113   3.985   2.188
 4354SOL    HW113654   6.145   3.931   2.115
 4354SOL    HW213655   6.104   4.073   2.151
 4355SOL     OW13656   7.351   4.946   3.429
 4355SOL    HW113657   7.443   4.920   3.438
 4355SOL    HW213658   7.346   5.031   3.471
 4356SOL     OW13659   6.654   5.078   3.203
 4356SOL    HW113660   6.576   5.045   3.247
 4356SOL    HW213661   6.727   5.032   3.244
 4357SOL     OW13662   7.184   5.344   3.501
 4357SOL    HW113663   7.188   5.399   3.423
 4357SOL    HW213664   7.273   5.308   3.509
 4358SOL     OW13665   6.705   4.924   2.969
 4358SOL    HW113666   6.648   4.963   3.036
 4358SOL    HW213667   6.668   4.954   2.886
 4359SOL     OW13668   7.221   4.824   2.941
 4359SOL    HW113669   7.220   4.892   3.008
 4359SOL    HW213670   7.138   4.836   2.895
 4360SOL     OW13671   6.503   3.822   3.268
 4360SOL    HW113672   6.522   3.799   3.176
 4360SOL    HW213673   6.583   3.865   3.299
 4361SOL     OW13674   6.292   4.781   2.234
 4361SOL    HW113675   6.280   4.773   2.328
 4361SOL    HW213676   6.370   4.728   2.215
 4362SOL     OW13677   6.000   4.536   3.112
 4362SOL    HW113678   6.071   4.547   3.175
 4362SOL    HW213679   5.962   4.451   3.134
 4363SOL     OW13680   6.857   4.105   3.131
 4363SOL    HW113681   6.884   4.183   3.180
 4363SOL    HW213682   6.771   4.127   3.096
 4364SOL     OW13683   5.653   5.297   3.202
 4364SOL    HW113684   5.614   5.365   3.146
 4364SOL    HW213685   5.747   5.311   3.194
 4365SOL     OW13686   5.945   4.826   2.358
 4365SOL    HW113687   5.948   4.901   2.299
 4365SOL    HW213688   5.949   4.750   2.301
 4366SOL     OW13689   6.147   4.262   2.725
 4366SOL    HW113690   6.164   4.322   2.653
 4366SOL    HW213691   6.201   4.295   2.797
 4367SOL     OW13692   6.834   5.072   2.251
 4367SOL    HW113693   6.885   5.145   2.286
 4367SOL    HW213694   6.746   5.087   2.285
 4368SOL     OW13695   6.859   5.174   3.007
 4368SOL    HW113696   6.909   5.175   3.089
 4368SOL    HW213697   6.803   5.097   3.015
 4369SOL     OW13698   7.170   4.356   2.336
 4369SOL    HW113699   7.133   4.418   2.400
 4369SOL    HW213700   7.214   4.412   2.272
 4370SOL     OW13701   5.936   5.234   3.188
 4370SOL    HW113702   5.921   5.198   3.100
 4370SOL    HW213703   6.028   5.258   3.188
 4371SOL     OW13704   5.988   4.473   3.463
 4371SOL    HW113705   6.052   4.524   3.414
 4371SOL    HW213706   6.034   4.391   3.484
 4372SOL     OW13707   7.177   4.491   3.526
 4372SOL    HW113708   7.099   4.545   3.537
 4372SOL    HW213709   7.238   4.546   3.477
 4373SOL     OW13710   6.166   4.594   2.893
 4373SOL    HW113711   6.197   4.684   2.886
 4373SOL    HW213712   6.106   4.595   2.968
 4374SOL     OW13713   6.948   4.585   2.902
 4374SOL    HW113714   6.871   4.581   2.844
 4374SOL    HW213715   6.980   4.495   2.906
 4375SOL     OW13716   6.797   4.253   2.135
 4375SOL    HW113717   6.803   4.173   2.188
 4375SOL    HW213718   6.758   4.318   2.194
 4376SOL     OW13719   5.892   3.930   3.102
 4376SOL    HW113720   5.859   3.963   3.186
 4376SOL    HW213721   5.866   3.838   3.101
 4377SOL     OW13722   5.631   5.033   3.140
 4377SOL    HW113723   5.669   4.985   3.214
 4377SOL    HW213724   5.642   5.125   3.163
 4378SOL     OW13725   6.316   4.358   2.926
 4378SOL    HW113726   6.381   4.337   2.859
 4378SOL    HW213727   6.287   4.447   2.905
 4379SOL     OW13728   5.888   3.791   2.484
 4379SOL    HW113729   5.874   3.881   2.514
 4379SOL    HW213730   5.888   3.739   2.564
 4380SOL     OW13731   7.197   4.092   2.233
 4380SOL    HW113732   7.221   4.028   2.300
 4380SOL    HW213733   7.170   4.170   2.282
 4381SOL     OW13734   6.611   4.486   2.827
 4381SOL    HW113735   6.618   4.504   2.921
 4381SOL    HW213736   6.584   4.395   2.821
 4382SOL     OW13737   7.437   5.237   3.445
 4382SOL    HW113738   7.476   5.259   3.361
 4382SOL    HW213739   7.501   5.266   3.510
 4383SOL     OW13740   7.118   4.000   1.988
 4383SOL    HW113741   7.060   3.930   2.016
 4383SOL    HW213742   7.151   4.038   2.070
 4384SOL     OW13743   6.885   4.555   1.900
 4384SOL    HW113744   6.925   4.468   1.905
 4384SOL    HW213745   6.912   4.588   1.814
 4385SOL     OW13746   6.655   5.055   2.715
 4385SOL    HW113747   6.657   4.983   2.653
 4385SOL    HW213748   6.714   5.121   2.677
 4386SOL     OW13749   5.900   4.536   2.812
 4386SOL    HW113750   5.993   4.559   2.810
 4386SOL    HW213751   5.898   4.450   2.853
 4387SOL     OW13752   5.923   4.240   2.870
 4387SOL    HW113753   5.883   4.155   2.852
 4387SOL    HW213754   5.997   4.244   2.810
 4388SOL     OW13755   6.734   3.939   3.339
 4388SOL    HW113756   6.755   4.000   3.411
 4388SOL    HW213757   6.776   3.978   3.262
 4389SOL     OW13758   5.590   5.050   2.058
 4389SOL    HW113759   5.502   5.061   2.025
 4389SOL    HW213760   5.594   4.958   2.085
 4390SOL     OW13761   6.092   5.290   2.775
 4390SOL    HW113762   6.152   5.365   2.770
 4390SOL    HW213763   6.133   5.223   2.720
 4391SOL     OW13764   6.582   4.521   3.093
 4391SOL    HW113765   6.626   4.492   3.173
 4391SOL    HW213766   6.492   4.489   3.103
 4392SOL     OW13767   5.623   4.266   2.978
 4392SOL    HW113768   5.706   4.243   2.936
 4392SOL    HW213769   5.646   4.277   3.070
 4393SOL     OW13770   6.400   4.292   2.206
 4393SOL    HW113771   6.403   4.215   2.149
 4393SOL    HW213772   6.321   4.338   2.181
 4394SOL     OW13773   7.238   4.322   3.053
 4394SOL    HW113774   7.218   4.264   3.127
 4394SOL    HW213775   7.326   4.297   3.026
 4395SOL     OW13776   5.864   5.266   0.050
 4395SOL    HW113777   5.816   5.334   0.097
 4395SOL    HW213778   5.828   5.184   0.083
 4396SOL     OW13779   6.272   4.181   3.129
 4396SOL    HW113780   6.225   4.105   3.095
 4396SOL    HW213781   6.277   4.241   3.054
 4397SOL     OW13782   6.058   4.220   2.051
 4397SOL    HW113783   6.113   4.296   2.066
 4397SOL    HW213784   5.968   4.254   2.050
 4398SOL     OW13785   5.742   4.863   3.330
 4398SOL    HW113786   5.753   4.803   3.404
 4398SOL    HW213787   5.755   4.807   3.253
 4399SOL     OW13788   6.922   4.779   3.093
 4399SOL    HW113789   6.949   4.718   3.024
 4399SOL    HW213790   6.843   4.821   3.058
 4400SOL     OW13791   6.891   4.578   2.172
 4400SOL    HW113792   6.810   4.550   2.214
 4400SOL    HW213793   6.874   4.567   2.078
 4401SOL     OW13794   7.339   5.450   3.005
 4401SOL    HW113795   7.390   5.477   2.929
 4401SOL    HW213796   7.313   5.360   2.986
 4402SOL     OW13797   6.836   5.442   2.989
 4402SOL    HW113798   6.916   5.463   2.942
 4402SOL    HW213799   6.838   5.346   2.998
 4403SOL     OW13800   5.671   4.985   2.879
 4403SOL    HW113801   5.659   4.993   2.974
 4403SOL    HW213802   5.592   4.940   2.849
 4404SOL     OW13803   7.304   3.859   2.377
 4404SOL    HW113804   7.381   3.843   2.323
 4404SOL    HW213805   7.286   3.775   2.419
 4405SOL     OW13806   6.974   5.295   2.341
 4405SOL    HW113807   7.044   5.308   2.278
 4405SOL    HW213808   6.939   5.382   2.357
 4406SOL     OW13809   6.863   4.646   2.533
 4406SOL    HW113810   6.934   4.582   2.535
 4406SOL    HW213811   6.898   4.719   2.481
 4407SOL     OW13812   6.412   4.995   3.290
 4407SOL    HW113813   6.398   5.026   3.380
 4407SOL    HW213814   6.331   5.017   3.244
 4408SOL     OW13815   6.269   5.328   2.013
 4408SOL    HW113816   6.258   5.336   1.918
 4408SOL    HW213817   6.218   5.251   2.037
 4409SOL     OW13818   7.433   3.892   2.830
 4409SOL    HW113819   7.466   3.814   2.786
 4409SOL    HW213820   7.345   3.904   2.795
 4410SOL     OW13821   5.854   4.045   2.582
 4410SOL    HW113822   5.771   4.084   2.553
 4410SOL    HW213823   5.842   4.034   2.677
 4411SOL     OW13824   6.784   5.330   1.891
 4411SOL    HW113825   6.781   5.239   1.923
 4411SOL    HW213826   6.717   5.333   1.822
 4412SOL     OW13827   6.408   4.729   3.231
 4412SOL    HW113828   6.450   4.729   3.145
 4412SOL    HW213829   6.414   4.820   3.261
 4413SOL     OW13830   6.502   4.634   2.151
 4413SOL    HW113831   6.564   4.666   2.086
 4413SOL    HW213832   6.545   4.559   2.192
 4414SOL     OW13833   5.958   5.021   3.368
 4414SOL    HW113834   5.948   5.099   3.312
 4414SOL    HW213835   5.884   4.966   3.346
 4415SOL     OW13836   7.207   5.012   3.148
 4415SOL    HW113837   7.256   5.004   3.229
 4415SOL    HW213838   7.141   5.079   3.165
 4416SOL     OW13839   6.628   4.825   2.563
 4416SOL    HW113840   6.560   4.775   2.606
 4416SOL    HW213841   6.686   4.759   2.525
 4417SOL     OW13842   6.603   3.963   2.828
 4417SOL    HW113843   6.595   3.917   2.745
 4417SOL    HW213844   6.598   3.893   2.894
 4418SOL     OW13845   6.174   5.203   2.348
 4418SOL    HW113846   6.219   5.163   2.274
 4418SOL    HW213847   6.143   5.288   2.315
 4419SOL     OW13848   7.296   4.113   3.239
 4419SOL    HW113849   7.370   4.173   3.250
 4419SOL    HW213850   7.331   4.041   3.186
 4420SOL     OW13851   5.842   5.075   2.146
 4420SOL    HW113852   5.748   5.071   2.128
 4420SOL    HW213853   5.848   5.112   2.234
 4421SOL     OW13854   5.700   4.724   0.026
 4421SOL    HW113855   5.621   4.715   0.080
 4421SOL    HW213856   5.773   4.715   0.088
 4422SOL     OW13857   6.256   3.917   3.361
 4422SOL    HW113858   6.339   3.906   3.314
 4422SOL    HW213859   6.281   3.947   3.448
 4423SOL     OW13860   5.661   4.066   1.898
 4423SOL    HW113861   5.575   4.042   1.866
 4423SOL    HW213862   5.688   4.140   1.842
 4424SOL     OW13863   7.019   4.575   3.263
 4424SOL    HW113864   6.972   4.637   3.207
 4424SOL    HW213865   7.111   4.587   3.240
 4425SOL     OW13866   5.658   3.885   2.179
 4425SOL    HW113867   5.643   3.965   2.128
 4425SOL    HW213868   5.744   3.854   2.151
 4426SOL     OW13869   6.768   5.066   1.980
 4426SOL    HW113870   6.676   5.040   1.985
 4426SOL    HW213871   6.798   5.066   2.070
 4427SOL     OW13872   6.201   4.560   3.292
 4427SOL    HW113873   6.256   4.637   3.278
 4427SOL    HW213874   6.263   4.487   3.300
 4428SOL     OW13875   6.307   4.293   0.018
 4428SOL    HW113876   6.317   4.352   0.092
 4428SOL    HW213877   6.356   4.214   0.044
 4429SOL     OW13878   5.979   5.463   3.429
 4429SOL    HW113879   5.892   5.500   3.417
 4429SOL    HW213880   5.964   5.373   3.458
 4430SOL     OW13881   7.258   4.607   3.118
 4430SOL    HW113882   7.245   4.522   3.076
 4430SOL    HW213883   7.255   4.670   3.046
 4431SOL     OW13884   6.808   4.046   2.316
 4431SOL    HW113885   6.873   3.975   2.307
 4431SOL    HW213886   6.834   4.092   2.396
 4432SOL     OW13887   6.180   4.467   2.522
 4432SOL    HW113888   6.221   4.552   2.504
 4432SOL    HW213889   6.103   4.465   2.465
 4433SOL     OW13890   7.330   4.658   3.377
 4433SOL    HW113891   7.336   4.753   3.389
 4433SOL    HW213892   7.313   4.647   3.283
 4434SOL     OW13893   6.443   5.097   1.883
 4434SOL    HW113894   6.406   5.117   1.969
 4434SOL    HW213895   6.477   5.181   1.852
 4435SOL     OW13896   6.449   4.685   2.720
 4435SOL    HW113897   6.500   4.617   2.765
 4435SOL    HW213898   6.419   4.743   2.790
 4436SOL     OW13899   6.666   4.710   1.950
 4436SOL    HW113900   6.647   4.760   1.870
 4436SOL    HW213901   6.744   4.659   1.927
 4437SOL     OW13902   7.453   5.289   2.707
 4437SOL    HW113903   7.373   5.284   2.655
 4437SOL    HW213904   7.442   5.224   2.775
 4438SOL     OW13905   5.670   4.964   2.521
 4438SOL    HW113906   5.667   4.914   2.602
 4438SOL    HW213907   5.742   4.924   2.471
 4439SOL     OW13908   6.233   5.123   3.463
 4439SOL    HW113909   6.177   5.063   3.513
 4439SOL    HW213910   6.247   5.197   3.521
 4440SOL     OW13911   7.404   3.912   3.098
 4440SOL    HW113912   7.407   3.819   3.120
 4440SOL    HW213913   7.416   3.915   3.003
 4441SOL     OW13914   6.016   4.154   2.384
 4441SOL    HW113915   6.042   4.081   2.328
 4441SOL    HW213916   5.973   4.113   2.458
 4442SOL     OW13917   7.293   5.198   2.957
 4442SOL    HW113918   7.205   5.177   2.928
 4442SOL    HW213919   7.306   5.145   3.036
 4443SOL     OW13920   5.908   4.272   3.148
 4443SOL    HW113921   5.959   4.217   3.208
 4443SOL    HW213922   5.937   4.247   3.061
 4444SOL     OW13923   6.413   5.283   2.548
 4444SOL    HW113924   6.411   5.340   2.471
 4444SOL    HW213925   6.326   5.244   2.552
 4445SOL     OW13926   7.016   3.943   2.979
 4445SOL    HW113927   7.055   3.873   3.031
 4445SOL    HW213928   6.965   3.994   3.041
 4446SOL     OW13929   6.590   3.750   3.013
 4446SOL    HW113930   6.535   3.680   2.978
 4446SOL    HW213931   6.679   3.714   3.013
 4447SOL     OW13932   6.359   5.053   2.164
 4447SOL    HW113933   6.318   4.968   2.178
 4447SOL    HW213934   6.441   5.049   2.213
 4448SOL     OW13935   6.205   5.293   3.145
 4448SOL    HW113936   6.209   5.369   3.203
 4448SOL    HW213937   6.293   5.285   3.109
 4449SOL     OW13938   6.939   3.776   2.027
 4449SOL    HW113939   6.963   3.727   1.948
 4449SOL    HW213940   6.852   3.742   2.051
 4450SOL     OW13941   6.884   4.181   2.548
 4450SOL    HW113942   6.829   4.258   2.558
 4450SOL    HW213943   6.888   4.143   2.636
 4451SOL     OW13944   7.179   3.936   2.742
 4451SOL    HW113945   7.104   3.947   2.801
 4451SOL    HW213946   7.178   4.015   2.687
 4452SOL     OW13947   5.628   4.801   2.164
 4452SOL    HW113948   5.722   4.789   2.151
 4452SOL    HW213949   5.596   4.714   2.189
   7.50782   5.45800   3.55045
