Curcumin on GO nanoflake, explicit water
13949
    1GOFLA   C1    1   2.776   1.387   1.179  0.0212 -0.7505  0.0272
    1GOFLA   C2    2   2.650   1.600   1.215  0.5041  0.0717 -0.0002
    1GOFLA   C3    3   2.527   1.813   1.202 -0.4601  0.3613  0.9235
    1GOFLA   C4    4   2.407   2.032   1.189  0.1394  0.0956 -0.5659
    1GOFLA   C5    5   2.285   2.235   1.232  0.3687 -0.7957  0.6343
    1GOFLA   C6    6   2.160   2.443   1.228 -0.1297 -0.1768 -0.1907
    1GOFLA   C7    7   2.038   2.657   1.185  0.1136 -0.1718  0.7771
    1GOFLA   C8    8   1.912   2.871   1.157  0.2881  0.4840 -0.6490
    1GOFLA   C9    9   1.791   3.086   1.141  0.0807  1.1023 -0.3816
    1GOFLA  C10   10   1.665   3.303   1.156 -0.0317 -0.5203  0.0629
    1GOFLA  C11   11   1.548   3.519   1.143  0.7326 -0.5959 -0.2934
    1GOFLA  C12   12   1.420   3.729   1.153  0.0866  0.1472 -0.2774
    1GOFLA  C13   13   1.299   3.938   1.204  0.2111 -0.4577  0.7953
    1GOFLA  C14   14   2.892   1.322   1.158 -0.2892  0.4652  0.1120
    1GOFLA  C15   15   3.022   1.389   1.165  0.6536  0.3617 -0.5410
    1GOFLA  C16   16   2.774   1.530   1.206 -0.4351 -0.5877  0.1049
    1GOFLA  C17   17   2.893   1.601   1.199 -0.9080 -0.3530  0.2895
    1GOFLA  C18   18   2.651   1.741   1.217 -0.3007  0.4603  0.2712
    1GOFLA  C19   19   2.770   1.811   1.229  1.0562 -1.1043  0.1184
    1GOFLA  C20   20   2.528   1.954   1.198  0.1142 -0.3124 -0.2748
    1GOFLA  C21   21   2.649   2.023   1.222 -0.6901  0.3310  0.4881
    1GOFLA  C22   22   2.405   2.164   1.226 -0.5615  0.0750 -0.7784
    1GOFLA  C23   23   2.532   2.237   1.232  0.5592  0.3177  1.1493
    1GOFLA  C24   24   2.285   2.376   1.240  0.0736  0.0047  0.3919
    1GOFLA  C25   25   2.409   2.450   1.246  0.3590 -1.0739  0.1510
    1GOFLA  C26   26   2.160   2.586   1.220  1.1847  0.2556 -0.4495
    1GOFLA  C27   27   2.281   2.660   1.234  0.3394  0.1829 -0.1457
    1GOFLA  C28   28   2.039   2.800   1.173  0.6581  0.2840  0.3152
    1GOFLA  C29   29   2.158   2.870   1.183 -0.2263  0.3271 -0.1637
    1GOFLA  C30   30   1.912   3.016   1.144  0.3258 -0.2910 -0.6019
    1GOFLA  C31   31   2.039   3.084   1.160  0.4695  0.0501  0.4013
    1GOFLA  C32   32   1.786   3.230   1.156 -0.9944 -0.1831  0.5889
    1GOFLA  C33   33   1.911   3.300   1.154  0.1105  0.1317 -0.3735
    1GOFLA  C34   34   1.670   3.445   1.145  0.6592 -0.2374 -0.1702
    1GOFLA  C35   35   1.790   3.518   1.155 -0.2297  0.0605 -0.3854
    1GOFLA  C36   36   1.540   3.660   1.150  0.2182 -0.1473  0.1456
    1GOFLA  C37   37   1.667   3.730   1.149  0.9727 -0.6792 -0.3839
    1GOFLA  C38   38   1.425   3.870   1.178  1.1923 -0.6842 -0.1051
    1GOFLA  C39   39   1.550   3.944   1.154  0.7513  0.2162  0.0305
    1GOFLA  C40   40   1.294   4.081   1.181 -0.1750 -0.1716  0.5584
    1GOFLA  C41   41   1.420   4.151   1.165  0.5998 -0.5087 -0.0091
    1GOFLA  C42   42   3.142   1.309   1.155 -0.1860 -0.4146  0.8198
    1GOFLA  C43   43   3.261   1.379   1.186 -0.1874  0.2739 -0.6895
    1GOFLA  C44   44   3.017   1.532   1.180  0.0942  0.9600  0.1730
    1GOFLA  C45   45   3.141   1.604   1.176 -0.1014  0.8461  0.2817
    1GOFLA  C46   46   2.893   1.745   1.203 -0.7179  0.6774 -0.4611
    1GOFLA  C47   47   3.024   1.812   1.197  0.1010 -0.0003  0.7769
    1GOFLA  C48   48   2.772   1.954   1.230  0.3082 -0.4783 -0.3080
    1GOFLA  C49   49   2.893   2.027   1.227 -0.5422  0.3900 -0.0521
    1GOFLA  C50   50   2.656   2.163   1.207  0.5109 -0.5022  0.1401
    1GOFLA  C51   51   2.779   2.235   1.199 -0.1869 -0.2654  0.5402
    1GOFLA  C52   52   2.531   2.382   1.237 -0.0795 -0.0410 -0.8975
    1GOFLA  C53   53   2.655   2.449   1.244  0.0061 -0.1809  0.0339
    1GOFLA  C54   54   2.406   2.595   1.250 -0.3509  0.1045 -0.2851
    1GOFLA  C55   55   2.529   2.667   1.248 -0.0808  0.3703  0.2930
    1GOFLA  C56   56   2.278   2.800   1.208  0.6146  0.4958 -0.2719
    1GOFLA  C57   57   2.400   2.871   1.196  0.0618 -0.0322 -0.3458
    1GOFLA  C58   58   2.159   3.013   1.173  0.7111 -0.4794  0.2712
    1GOFLA  C59   59   2.281   3.088   1.189  0.7498  0.3805 -0.0319
    1GOFLA  C60   60   2.035   3.228   1.158 -0.9973  1.0790  0.1819
    1GOFLA  C61   61   2.156   3.301   1.187  0.6848  0.1988  0.5906
    1GOFLA  C62   62   1.912   3.445   1.158  0.6105 -0.0073 -0.0327
    1GOFLA  C63   63   2.033   3.513   1.181  0.0378 -0.0274 -0.2543
    1GOFLA  C64   64   1.785   3.657   1.168  0.5218  0.1085 -1.2929
    1GOFLA  C65   65   1.908   3.727   1.198 -0.1557  0.0943 -0.2219
    1GOFLA  C66   66   1.668   3.871   1.143  0.1659 -0.3841  0.2090
    1GOFLA  C67   67   1.785   3.938   1.180 -0.7411  0.2756  0.3072
    1GOFLA  C68   68   1.545   4.084   1.160 -0.2265  0.0513 -0.8208
    1GOFLA  C69   69   1.669   4.156   1.179  0.5742 -0.1186 -0.2410
    1GOFLA  C70   70   3.384   1.315   1.176 -0.0614 -0.1762  0.6786
    1GOFLA  C71   71   3.510   1.386   1.196 -0.5456 -0.1380 -0.3449
    1GOFLA  C72   72   3.257   1.524   1.189 -0.4875 -0.2041  0.1202
    1GOFLA  C73   73   3.381   1.592   1.191 -0.1780 -0.0368  0.7289
    1GOFLA  C74   74   3.144   1.742   1.184 -0.1086 -0.6226  0.2116
    1GOFLA  C75   75   3.259   1.812   1.218 -0.1143 -0.0707 -0.4958
    1GOFLA  C76   76   3.023   1.955   1.210  0.8657  0.2570  0.4821
    1GOFLA  C77   77   3.142   2.027   1.201 -0.2513  0.9864 -0.1443
    1GOFLA  C78   78   2.901   2.171   1.216 -0.3164  0.8204 -0.0561
    1GOFLA  C79   79   3.025   2.234   1.178 -0.0786 -0.4214 -0.4636
    1GOFLA  C80   80   2.781   2.377   1.219 -0.3272 -0.3636 -0.5084
    1GOFLA  C81   81   2.906   2.448   1.219 -0.6692  0.8484 -0.4028
    1GOFLA  C82   82   2.650   2.594   1.244 -0.5484  0.6214  0.3441
    1GOFLA  C83   83   2.774   2.659   1.222 -0.6562  0.5542  0.2310
    1GOFLA  C84   84   2.526   2.802   1.216  0.0288 -0.3647  0.4821
    1GOFLA  C85   85   2.647   2.872   1.182 -0.1157  0.8736  0.1927
    1GOFLA  C86   86   2.401   3.013   1.193  0.7802 -1.2284 -0.2507
    1GOFLA  C87   87   2.522   3.081   1.174 -0.1963  0.0835 -0.3932
    1GOFLA  C88   88   2.281   3.231   1.187 -0.2670 -0.2178  0.1959
    1GOFLA  C89   89   2.402   3.296   1.190  0.1123 -1.0237 -0.5067
    1GOFLA  C90   90   2.155   3.441   1.197 -0.0266 -0.6510 -0.0154
    1GOFLA  C91   91   2.283   3.504   1.235  0.2980  0.0313 -0.0464
    1GOFLA  C92   92   2.030   3.652   1.210 -0.5190 -0.1167  0.2219
    1GOFLA  C93   93   2.154   3.717   1.212  0.3681  0.1833  0.4782
    1GOFLA  C94   94   1.908   3.863   1.190  0.0117  0.0380  0.1411
    1GOFLA  C95   95   2.034   3.931   1.189  0.6331  0.1522  0.1380
    1GOFLA  C96   96   1.789   4.084   1.186 -0.5091  0.5967  0.4385
    1GOFLA  C97   97   1.917   4.153   1.188 -0.2681  0.3947  0.1807
    1GOFLA  C98   98   3.636   1.315   1.207 -0.0049  0.0702  0.4127
    1GOFLA  C99   99   3.760   1.383   1.221  0.9178 -0.3553  0.3428
    1GOFLA C100  100   3.506   1.527   1.179  0.0441 -0.4668 -0.2726
    1GOFLA C101  101   3.629   1.597   1.199 -0.6262  0.8156  0.3416
    1GOFLA C102  102   3.384   1.736   1.213  0.7832 -0.4975  0.3321
    1GOFLA C103  103   3.506   1.806   1.215 -0.4219  0.6002 -0.6106
    1GOFLA C104  104   3.261   1.954   1.236  0.1260 -0.5260 -0.2282
    1GOFLA C105  105   3.385   2.018   1.210  0.6492  0.2660 -0.6505
    1GOFLA C106  106   3.150   2.164   1.171 -0.0744  0.0172 -0.1008
    1GOFLA C107  107   3.272   2.228   1.164 -0.2171 -0.5107  0.1185
    1GOFLA C108  108   3.026   2.378   1.190  0.2116  0.2387 -0.0419
    1GOFLA C109  109   3.147   2.447   1.174 -0.1612  1.0258 -0.2290
    1GOFLA C110  110   2.904   2.586   1.228  0.5495 -0.1073 -0.2370
    1GOFLA C111  111   3.021   2.661   1.200 -0.0750  0.5999 -1.2799
    1GOFLA C112  112   2.774   2.803   1.185  0.1034  0.1151 -0.0538
    1GOFLA C113  113   2.895   2.878   1.176  0.2005 -0.0632 -0.4606
    1GOFLA C114  114   2.649   3.014   1.185 -0.3226  0.3994 -0.0024
    1GOFLA C115  115   2.771   3.091   1.186 -0.4734  0.3517 -0.1159
    1GOFLA C116  116   2.526   3.224   1.182 -0.0259  0.2915  0.0602
    1GOFLA C117  117   2.650   3.297   1.190  0.4456  0.1703 -0.4159
    1GOFLA C118  118   2.409   3.439   1.218 -0.7898  0.1096 -0.0484
    1GOFLA C119  119   2.527   3.512   1.199  0.3951 -0.6769 -0.1311
    1GOFLA C120  120   2.277   3.650   1.240 -0.0520 -0.4017 -0.0013
    1GOFLA C121  121   2.402   3.721   1.251  0.3714 -0.1986 -0.1480
    1GOFLA C122  122   2.159   3.865   1.202  0.6531 -0.1894 -0.0134
    1GOFLA C123  123   2.280   3.940   1.215  0.5890 -0.2787 -1.0360
    1GOFLA C124  124   2.041   4.079   1.188  0.1507 -0.3300 -0.0433
    1GOFLA C125  125   2.161   4.151   1.202 -0.1154  0.2700  0.5694
    1GOFLA C126  126   3.884   1.313   1.206 -0.2139 -0.4031  0.2616
    1GOFLA C127  127   4.000   1.385   1.242  0.4967 -0.6816 -0.0235
    1GOFLA C128  128   3.755   1.529   1.215 -0.3092  0.4293 -0.2569
    1GOFLA C129  129   3.874   1.600   1.240  1.0198 -0.0570 -0.8121
    1GOFLA C130  130   3.629   1.736   1.220  0.7307  0.4416  0.1791
    1GOFLA C131  131   3.751   1.807   1.215  0.0497 -0.2378 -0.4249
    1GOFLA C132  132   3.512   1.947   1.212 -0.1154  0.4876 -0.0192
    1GOFLA C133  133   3.634   2.020   1.192  0.0031 -1.0779  0.0824
    1GOFLA C134  134   3.392   2.162   1.187 -0.0500  0.1731  0.0498
    1GOFLA C135  135   3.513   2.230   1.175  0.0535 -0.1091  0.1275
    1GOFLA C136  136   3.267   2.371   1.165  0.0353 -0.2889  0.9761
    1GOFLA C137  137   3.386   2.446   1.168 -0.9538 -0.0919 -0.2050
    1GOFLA C138  138   3.145   2.592   1.179 -0.5052  0.2402 -0.2931
    1GOFLA C139  139   3.264   2.663   1.169 -0.2383 -0.3017 -0.0513
    1GOFLA C140  140   3.013   2.808   1.205 -0.2027  0.2241 -0.1303
    1GOFLA C141  141   3.135   2.874   1.199  0.0365  0.0673 -0.9196
    1GOFLA C142  142   2.892   3.023   1.172 -0.0044  0.1937  0.1643
    1GOFLA C143  143   3.015   3.092   1.185  0.1580 -0.6346  0.4799
    1GOFLA C144  144   2.777   3.235   1.197 -0.5247  0.2835  0.2662
    1GOFLA C145  145   2.899   3.312   1.192  0.2520  0.0408 -0.8987
    1GOFLA C146  146   2.645   3.439   1.196 -0.1785  0.4308  0.4117
    1GOFLA C147  147   2.768   3.514   1.202  0.1259 -0.3290 -0.1568
    1GOFLA C148  148   2.524   3.652   1.230 -0.1821  0.1383 -0.4303
    1GOFLA C149  149   2.644   3.726   1.215  0.5072 -0.2428 -0.6540
    1GOFLA C150  150   2.401   3.865   1.244  0.5918  0.2080 -0.0784
    1GOFLA C151  151   2.520   3.929   1.195  0.4077 -0.0489 -0.3530
    1GOFLA C152  152   2.283   4.084   1.216  0.7866  0.8197 -0.3922
    1GOFLA C153  153   2.407   4.155   1.204 -0.4791  0.4740 -0.1310
    1GOFLA C154  154   4.122   1.312   1.229  0.0356 -0.5703 -0.4358
    1GOFLA C155  155   4.246   1.383   1.223 -0.2876  0.1956  0.2912
    1GOFLA C156  156   3.995   1.528   1.267 -0.7770 -0.0436 -0.8929
    1GOFLA C157  157   4.120   1.592   1.245 -0.4678  0.1731  0.0115
    1GOFLA C158  158   3.872   1.738   1.201  0.7120 -0.4615  0.6113
    1GOFLA C159  159   3.997   1.805   1.196  0.1482  0.3836  0.5165
    1GOFLA C160  160   3.757   1.949   1.209  0.4143 -0.5098  0.0445
    1GOFLA C161  161   3.884   2.020   1.212 -0.5209 -0.1133 -0.1256
    1GOFLA C162  162   3.634   2.162   1.174 -0.4267  0.5453 -0.0977
    1GOFLA C163  163   3.755   2.231   1.189 -0.6703 -0.0209 -0.2213
    1GOFLA C164  164   3.511   2.371   1.179 -0.3404  0.1000 -0.1345
    1GOFLA C165  165   3.632   2.435   1.207  0.5375 -0.1186 -0.4673
    1GOFLA C166  166   3.389   2.591   1.175 -0.7490 -0.1732 -0.2820
    1GOFLA C167  167   3.509   2.659   1.192  0.4567 -0.0980  0.1427
    1GOFLA C168  168   3.261   2.805   1.181 -0.4874 -0.2943  0.0891
    1GOFLA C169  169   3.383   2.877   1.202  0.0812 -0.2683  0.0953
    1GOFLA C170  170   3.135   3.016   1.199 -0.3248  0.7808 -0.1816
    1GOFLA C171  171   3.258   3.086   1.209  0.3454  0.0465  0.1228
    1GOFLA C172  172   3.016   3.237   1.189 -0.6942 -0.4349  0.1727
    1GOFLA C173  173   3.139   3.300   1.213  0.3633 -0.5702 -0.4769
    1GOFLA C174  174   2.897   3.454   1.199  0.0190 -0.2109 -0.2210
    1GOFLA C175  175   3.023   3.518   1.216  0.2876 -0.0878  0.6448
    1GOFLA C176  176   2.768   3.657   1.206  0.5772  0.6524 -0.8142
    1GOFLA C177  177   2.891   3.725   1.205 -0.3357 -0.0974 -0.2366
    1GOFLA C178  178   2.646   3.864   1.205  0.3391 -0.2227  0.3702
    1GOFLA C179  179   2.771   3.936   1.189 -0.3094  0.1300  0.1402
    1GOFLA C180  180   2.529   4.077   1.203 -0.3365  0.5759  0.5082
    1GOFLA C181  181   2.656   4.154   1.192  0.4624 -0.4338 -0.3577
    1GOFLA C182  182   4.365   1.317   1.177 -0.4718 -0.0092  0.3541
    1GOFLA C183  183   4.488   1.382   1.179 -0.1562 -0.2784  0.0118
    1GOFLA C184  184   4.249   1.522   1.245  0.0263 -0.5871  0.3326
    1GOFLA C185  185   4.368   1.593   1.208  0.0208  0.3843 -0.3431
    1GOFLA C186  186   4.117   1.732   1.206 -0.2521  0.3384 -0.1026
    1GOFLA C187  187   4.238   1.803   1.194  0.0803  0.1145  0.2951
    1GOFLA C188  188   4.007   1.945   1.216  0.1728 -0.7253 -0.3467
    1GOFLA C189  189   4.121   2.014   1.168 -0.4939 -0.7320  0.7672
    1GOFLA C190  190   3.876   2.165   1.213 -0.6488  0.2098 -0.2862
    1GOFLA C191  191   4.000   2.234   1.198 -1.1685  1.0199  0.6547
    1GOFLA C192  192   3.755   2.371   1.181  0.0904 -0.1645 -0.4215
    1GOFLA C193  193   3.880   2.441   1.202 -0.0998 -0.2754  0.6562
    1GOFLA C194  194   3.628   2.581   1.204 -0.0281  0.1999 -0.7295
    1GOFLA C195  195   3.746   2.653   1.224 -0.5662  0.4750  0.1872
    1GOFLA C196  196   3.503   2.806   1.198 -0.3324 -0.6775 -0.5324
    1GOFLA C197  197   3.631   2.873   1.222  0.7311 -1.2437  0.2752
    1GOFLA C198  198   3.381   3.019   1.217  0.9849  0.1253 -0.0676
    1GOFLA C199  199   3.509   3.090   1.230  0.7718  0.4030 -0.1110
    1GOFLA C200  200   3.262   3.226   1.208 -0.0264  0.0182  0.8081
    1GOFLA C201  201   3.387   3.296   1.230 -0.3772 -0.4257 -0.2276
    1GOFLA C202  202   3.142   3.442   1.216  0.2983 -0.1206  0.2669
    1GOFLA C203  203   3.265   3.515   1.217  0.2619  0.2193 -0.4735
    1GOFLA C204  204   3.013   3.657   1.211 -0.0091  0.5641 -0.3006
    1GOFLA C205  205   3.136   3.726   1.200 -0.1566  0.5312  0.3111
    1GOFLA C206  206   2.896   3.863   1.197  0.6117  0.7506  0.1491
    1GOFLA C207  207   3.014   3.935   1.198 -1.0107 -0.5241 -0.0967
    1GOFLA C208  208   2.779   4.080   1.172  0.3229  1.0152 -0.1296
    1GOFLA C209  209   2.904   4.145   1.157  0.1112  0.2676  0.2489
    1GOFLA C210  210   4.614   1.315   1.150  0.5142  0.1063  0.2095
    1GOFLA C211  211   4.739   1.383   1.160  0.4969  0.2055  0.0948
    1GOFLA C212  212   4.490   1.524   1.190  0.0590  0.2876  0.2022
    1GOFLA C213  213   4.616   1.593   1.182 -0.2481  0.1592  0.2929
    1GOFLA C214  214   4.361   1.735   1.212 -0.0288  0.0945  0.0457
    1GOFLA C215  215   4.490   1.803   1.207  0.1079 -0.2213 -0.4715
    1GOFLA C216  216   4.241   1.947   1.186 -0.0346  1.0865 -0.6987
    1GOFLA C217  217   4.363   2.017   1.168 -0.3332 -0.0759 -1.0033
    1GOFLA C218  218   4.128   2.159   1.185  0.2358 -0.1446  0.1170
    1GOFLA C219  219   4.246   2.235   1.175  0.2305 -0.1298  0.0218
    1GOFLA C220  220   4.003   2.376   1.195 -0.3226  0.1254  0.1148
    1GOFLA C221  221   4.126   2.446   1.209 -0.4820  0.7836 -0.1999
    1GOFLA C222  222   3.871   2.582   1.214 -0.1452 -0.6240  0.2062
    1GOFLA C223  223   3.995   2.650   1.238 -0.2105  0.1356  0.1111
    1GOFLA C224  224   3.751   2.793   1.225  0.2015 -0.3820 -0.9082
    1GOFLA C225  225   3.874   2.869   1.233 -0.6689 -0.0445 -0.5522
    1GOFLA C226  226   3.629   3.016   1.237  0.2217  0.1788 -0.0343
    1GOFLA C227  227   3.755   3.080   1.238  0.2752 -0.5858 -0.1272
    1GOFLA C228  228   3.507   3.228   1.214  0.1176  0.0150 -0.0135
    1GOFLA C229  229   3.629   3.306   1.220  0.0607  0.6031 -0.5466
    1GOFLA C230  230   3.390   3.442   1.241  0.5392 -0.6065  0.2165
    1GOFLA C231  231   3.506   3.519   1.223  0.0438  0.6836 -0.0027
    1GOFLA C232  232   3.262   3.656   1.202  0.1461 -0.0445  0.6044
    1GOFLA C233  233   3.383   3.733   1.206  0.2360 -0.2892 -0.8359
    1GOFLA C234  234   3.135   3.867   1.207 -0.2899 -0.1889  0.2951
    1GOFLA C235  235   3.255   3.940   1.222 -0.9068 -0.1722  0.3403
    1GOFLA C236  236   3.017   4.077   1.194 -0.0081  0.1808 -0.3125
    1GOFLA C237  237   3.138   4.150   1.230  0.0026 -0.4313  0.4686
    1GOFLA C238  238   4.855   1.322   1.103  0.1010  0.3571  0.3323
    1GOFLA C239  239   4.978   1.385   1.135  1.1278  0.1508  0.4119
    1GOFLA C240  240   4.737   1.525   1.171  0.3300 -0.6005 -0.2269
    1GOFLA C241  241   4.857   1.598   1.156 -0.1697  0.4316  0.0452
    1GOFLA C242  242   4.613   1.736   1.188 -0.1033  0.4407 -0.0331
    1GOFLA C243  243   4.733   1.806   1.203 -1.1753  0.0422  1.2019
    1GOFLA C244  244   4.488   1.947   1.193  0.3074  0.4965 -0.2753
    1GOFLA C245  245   4.610   2.015   1.188  0.5237 -0.2419  0.7901
    1GOFLA C246  246   4.368   2.161   1.166  0.8888  0.2318  0.2301
    1GOFLA C247  247   4.487   2.233   1.171 -0.5447  0.5175 -0.8201
    1GOFLA C248  248   4.247   2.376   1.191  0.2820  0.3966  0.3722
    1GOFLA C249  249   4.368   2.450   1.174 -0.2399  0.7271 -0.6412
    1GOFLA C250  250   4.120   2.586   1.213  0.2170  0.3398 -0.1342
    1GOFLA C251  251   4.242   2.656   1.203 -0.1211 -0.4595 -0.6615
    1GOFLA C252  252   3.997   2.795   1.238  0.3897  0.1496  0.5640
    1GOFLA C253  253   4.118   2.873   1.231 -0.1677 -0.3018 -0.4775
    1GOFLA C254  254   3.873   3.007   1.247  0.2532 -0.6812  0.0623
    1GOFLA C255  255   3.996   3.077   1.219 -0.5254 -0.1742 -0.1706
    1GOFLA C256  256   3.748   3.228   1.242  0.4936  0.4256  0.7026
    1GOFLA C257  257   3.872   3.293   1.237  0.9604  0.1057  0.1023
    1GOFLA C258  258   3.625   3.450   1.209  0.3174  0.6246  0.2213
    1GOFLA C259  259   3.749   3.514   1.230 -0.0981 -0.2489  0.2606
    1GOFLA C260  260   3.504   3.663   1.214  0.5674 -0.0654  0.1882
    1GOFLA C261  261   3.631   3.728   1.216  0.0706  0.5340  1.3930
    1GOFLA C262  262   3.380   3.871   1.225 -0.0334 -0.2300 -0.2384
    1GOFLA C263  263   3.504   3.946   1.205  0.0915  0.1665 -0.5968
    1GOFLA C264  264   3.261   4.082   1.233 -0.7112  0.5458  0.6574
    1GOFLA C265  265   3.383   4.155   1.207 -0.2686  0.2326 -0.6345
    1GOFLA C266  266   5.103   1.313   1.139 -0.6128 -0.4670 -0.0998
    1GOFLA C267  267   5.226   1.374   1.178  0.3607 -0.6329  0.0052
    1GOFLA C268  268   4.980   1.523   1.162 -0.8084 -0.4323  0.3676
    1GOFLA C269  269   5.104   1.588   1.198 -0.6854  0.0095  0.3538
    1GOFLA C270  270   4.855   1.735   1.192 -0.5868 -0.6292 -0.4023
    1GOFLA C271  271   4.980   1.802   1.208 -0.0487  0.3092  0.7359
    1GOFLA C272  272   4.731   1.946   1.206 -0.4283 -0.2859 -0.0178
    1GOFLA C273  273   4.859   2.017   1.206 -0.1316  0.0708  0.3264
    1GOFLA C274  274   4.606   2.158   1.180 -0.5038  0.5386 -0.2591
    1GOFLA C275  275   4.734   2.227   1.198  0.3326 -0.3249  0.0504
    1GOFLA C276  276   4.491   2.375   1.166 -0.0310  0.2264  0.7894
    1GOFLA C277  277   4.616   2.443   1.185  0.0895  1.0503  0.2850
    1GOFLA C278  278   4.368   2.589   1.180 -0.1728 -0.5064  0.2187
    1GOFLA C279  279   4.493   2.659   1.173 -0.1880 -0.2655  0.2606
    1GOFLA C280  280   4.239   2.799   1.210 -0.1865  0.0564  0.3044
    1GOFLA C281  281   4.360   2.871   1.174 -0.1178 -0.1390  0.4990
    1GOFLA C282  282   4.122   3.019   1.240  0.5268 -0.5984  0.1132
    1GOFLA C283  283   4.237   3.086   1.201  0.2362  0.2199  0.4190
    1GOFLA C284  284   3.991   3.220   1.210  0.2493 -0.7882 -0.1293
    1GOFLA C285  285   4.111   3.297   1.201  0.0680  0.3509  1.0597
    1GOFLA C286  286   3.874   3.437   1.237 -0.3142  0.1751  0.2203
    1GOFLA C287  287   3.995   3.509   1.221  0.2491  0.3045  0.9695
    1GOFLA C288  288   3.752   3.656   1.220 -0.2185 -0.4179 -0.7284
    1GOFLA C289  289   3.871   3.724   1.237  0.0298 -0.1977  0.4364
    1GOFLA C290  290   3.628   3.870   1.219 -0.6374  0.1939 -0.4910
    1GOFLA C291  291   3.755   3.936   1.208  0.3320 -0.6343  0.7796
    1GOFLA C292  292   3.505   4.086   1.187 -0.1322  0.1948 -0.3569
    1GOFLA C293  293   3.632   4.150   1.171  0.0089 -0.3991 -0.1722
    1GOFLA C294  294   5.349   1.303   1.177  0.3438  0.0227  0.3051
    1GOFLA C295  295   5.476   1.366   1.182  0.1365 -0.3518 -1.2369
    1GOFLA C296  296   5.225   1.514   1.180 -0.2547  0.2961  0.4390
    1GOFLA C297  297   5.348   1.582   1.183 -0.2986 -0.6720  0.7122
    1GOFLA C298  298   5.105   1.730   1.223 -0.3038 -0.1055  0.2498
    1GOFLA C299  299   5.227   1.806   1.210  0.0659  0.2269 -0.8671
    1GOFLA C300  300   4.983   1.946   1.215 -0.1524  0.1663 -0.5716
    1GOFLA C301  301   5.108   2.017   1.216  0.2733  0.6223 -0.8526
    1GOFLA C302  302   4.861   2.159   1.203  0.5335 -0.0947 -0.4528
    1GOFLA C303  303   4.986   2.233   1.207  0.0770  0.3064  0.2869
    1GOFLA C304  304   4.738   2.371   1.200  0.2162  0.1831 -0.1051
    1GOFLA C305  305   4.862   2.443   1.198 -0.3229  0.5821 -0.4144
    1GOFLA C306  306   4.620   2.585   1.187  0.4781 -0.7822  0.0991
    1GOFLA C307  307   4.737   2.654   1.189 -0.8492  0.2669 -0.3256
    1GOFLA C308  308   4.487   2.799   1.169  0.3533 -0.2228  0.2816
    1GOFLA C309  309   4.612   2.870   1.173  0.7217 -0.4097 -0.4403
    1GOFLA C310  310   4.357   3.015   1.171 -0.0854  0.4042  0.0337
    1GOFLA C311  311   4.477   3.091   1.175  0.0064  0.5964  0.4062
    1GOFLA C312  312   4.231   3.225   1.190  0.1242 -0.4256 -0.1155
    1GOFLA C313  313   4.355   3.294   1.196 -0.1332  0.1400 -0.3755
    1GOFLA C314  314   4.114   3.436   1.192  0.8622  0.0179 -0.3727
    1GOFLA C315  315   4.238   3.510   1.198  0.0169 -0.2459  0.1921
    1GOFLA C316  316   3.997   3.647   1.233 -0.2852  0.2524  0.2072
    1GOFLA C317  317   4.121   3.721   1.232  0.0814 -0.3878  0.3494
    1GOFLA C318  318   3.878   3.863   1.215  1.2288 -0.0378 -0.1219
    1GOFLA C319  319   3.999   3.932   1.200  0.3868  0.5444 -0.1622
    1GOFLA C320  320   3.757   4.074   1.181  0.3457 -0.1711  0.3591
    1GOFLA C321  321   3.884   4.147   1.180 -0.3794 -0.4654  0.4170
    1GOFLA C322  322   5.602   1.300   1.177  0.3234  0.4349  0.3649
    1GOFLA C323  323   5.724   1.373   1.192 -0.7213 -0.3715  0.5054
    1GOFLA C324  324   5.476   1.511   1.196 -0.2844 -0.1407 -0.5539
    1GOFLA C325  325   5.597   1.585   1.213  0.4828  0.2588 -0.2739
    1GOFLA C326  326   5.348   1.731   1.195 -0.7421 -0.5027 -0.6155
    1GOFLA C327  327   5.477   1.803   1.190 -0.0837 -0.4494 -0.9622
    1GOFLA C328  328   5.233   1.946   1.231  0.2653 -1.2455  0.7417
    1GOFLA C329  329   5.356   2.015   1.206  0.2156  0.3435  0.4114
    1GOFLA C330  330   5.108   2.162   1.222  0.3328  0.0002 -1.0791
    1GOFLA C331  331   5.230   2.228   1.204  0.0421 -0.1959 -0.2928
    1GOFLA C332  332   4.985   2.372   1.201 -0.2194 -0.0778 -0.4828
    1GOFLA C333  333   5.105   2.443   1.200 -0.0116  0.1739 -0.2139
    1GOFLA C334  334   4.860   2.586   1.192 -0.6023  0.4919  0.3284
    1GOFLA C335  335   4.982   2.658   1.186 -0.4556 -0.0079 -0.3609
    1GOFLA C336  336   4.733   2.795   1.179  0.3262  0.7730  0.6918
    1GOFLA C337  337   4.857   2.869   1.172  0.7625 -0.0513  0.5492
    1GOFLA C338  338   4.604   3.015   1.180  0.0519  0.0127 -0.2539
    1GOFLA C339  339   4.730   3.082   1.187  0.0843 -0.3815  0.0520
    1GOFLA C340  340   4.481   3.229   1.185 -0.5098  0.0335 -0.5086
    1GOFLA C341  341   4.606   3.301   1.168  0.0017  0.2008 -0.3539
    1GOFLA C342  342   4.359   3.440   1.206  0.6760  0.5151 -0.1839
    1GOFLA C343  343   4.485   3.509   1.216  0.5598  0.1703  0.0795
    1GOFLA C344  344   4.238   3.649   1.207 -0.3082 -0.2328 -0.2737
    1GOFLA C345  345   4.362   3.714   1.234  0.0243 -0.0407  0.3336
    1GOFLA C346  346   4.123   3.863   1.210 -0.4106  0.1954  1.0373
    1GOFLA C347  347   4.246   3.930   1.227  0.3002  0.5595  0.3040
    1GOFLA C348  348   4.007   4.072   1.191 -0.1035 -0.3797  0.2694
    1GOFLA C349  349   4.126   4.143   1.209 -0.1817  0.2507 -0.3841
    1GOFLA C350  350   5.850   1.302   1.192 -0.2711 -0.3427 -0.1224
    1GOFLA C351  351   5.973   1.371   1.185 -0.0811 -0.3947  0.2697
    1GOFLA C352  352   5.719   1.517   1.207  0.8127 -0.0077  0.2517
    1GOFLA C353  353   5.846   1.589   1.204 -0.3082 -1.1277  0.0960
    1GOFLA C354  354   5.599   1.729   1.209  0.0269  0.5914  0.7005
    1GOFLA C355  355   5.715   1.800   1.222 -0.1367 -0.2181 -0.4807
    1GOFLA C356  356   5.478   1.947   1.196 -0.0073  1.4181  0.0570
    1GOFLA C357  357   5.602   2.014   1.229  0.4062 -0.8103  0.0261
    1GOFLA C358  358   5.355   2.160   1.207 -0.3585  0.3263  0.4989
    1GOFLA C359  359   5.477   2.233   1.212  0.3955  0.2347  0.3373
    1GOFLA C360  360   5.226   2.369   1.207  0.8035 -0.0560 -0.2743
    1GOFLA C361  361   5.350   2.442   1.232 -0.2944 -0.2333 -0.0845
    1GOFLA C362  362   5.104   2.582   1.176  0.4376 -0.4828  0.0089
    1GOFLA C363  363   5.230   2.647   1.181 -0.1817  0.2959 -0.1338
    1GOFLA C364  364   4.981   2.799   1.177 -0.3579  0.2600 -0.3309
    1GOFLA C365  365   5.104   2.868   1.192  0.6289 -0.6141 -0.1192
    1GOFLA C366  366   4.857   3.013   1.180 -0.1224 -0.2710  0.4510
    1GOFLA C367  367   4.975   3.083   1.175 -0.8436  0.5085 -0.0136
    1GOFLA C368  368   4.728   3.224   1.172  0.3046 -0.4163 -0.3417
    1GOFLA C369  369   4.843   3.299   1.147  0.3097  0.0421 -0.0075
    1GOFLA C370  370   4.603   3.440   1.189 -0.5191  0.9984 -0.0339
    1GOFLA C371  371   4.727   3.509   1.195 -0.4748 -0.7563  0.0938
    1GOFLA C372  372   4.488   3.648   1.221 -0.0796 -0.3484  0.2192
    1GOFLA C373  373   4.609   3.718   1.206 -0.1431 -0.6030 -0.4444
    1GOFLA C374  374   4.365   3.855   1.227 -0.2256 -0.4748  0.0850
    1GOFLA C375  375   4.490   3.932   1.201  0.2565 -0.1358 -0.1184
    1GOFLA C376  376   4.249   4.071   1.199  0.0566  0.7692 -0.0749
    1GOFLA C377  377   4.367   4.145   1.205 -0.1968 -0.0039 -0.2979
    1GOFLA C378  378   6.096   1.309   1.200  0.4202  0.6601 -0.4969
    1GOFLA C379  379   6.215   1.384   1.207  0.1796  0.1679  0.3016
    1GOFLA C380  380   5.971   1.517   1.187  0.8064 -0.0871  0.7220
    1GOFLA C381  381   6.092   1.591   1.179  0.2508 -0.6608  0.0643
    1GOFLA C382  382   5.841   1.732   1.211 -0.2692 -0.3052  0.2264
    1GOFLA C383  383   5.968   1.802   1.223 -0.5312 -0.6215  0.2709
    1GOFLA C384  384   5.719   1.939   1.228 -0.1758  0.0005 -0.6244
    1GOFLA C385  385   5.844   2.014   1.244 -0.2597  0.4313  0.5155
    1GOFLA C386  386   5.601   2.159   1.224  0.3352 -0.1083 -0.3806
    1GOFLA C387  387   5.721   2.230   1.249 -0.2775  0.6270 -0.6888
    1GOFLA C388  388   5.476   2.373   1.234  0.2932 -0.3501 -0.3590
    1GOFLA C389  389   5.595   2.444   1.231 -0.0253 -0.0908  0.3002
    1GOFLA C390  390   5.351   2.581   1.219  0.5387  0.2019  0.3019
    1GOFLA C391  391   5.472   2.654   1.223 -0.0284 -0.2528  0.1947
    1GOFLA C392  392   5.223   2.788   1.204 -1.5349  0.3104 -0.4611
    1GOFLA C393  393   5.342   2.866   1.190 -0.9419 -0.1040 -0.3268
    1GOFLA C394  394   5.100   3.012   1.177  0.0474  0.0878 -0.4316
    1GOFLA C395  395   5.224   3.083   1.201 -0.2071  0.1293 -0.6264
    1GOFLA C396  396   4.968   3.227   1.174  0.7675 -0.4985  0.0947
    1GOFLA C397  397   5.092   3.292   1.178 -0.2490  0.2166  0.2204
    1GOFLA C398  398   4.844   3.439   1.153  0.0118 -0.3843  0.1045
    1GOFLA C399  399   4.969   3.505   1.170 -0.1381  0.4848  0.5584
    1GOFLA C400  400   4.735   3.650   1.206  0.2825 -0.3174  0.3613
    1GOFLA C401  401   4.858   3.719   1.199 -0.2478 -0.8819 -0.1181
    1GOFLA C402  402   4.614   3.864   1.199 -0.1496  0.1428 -0.1772
    1GOFLA C403  403   4.736   3.929   1.182  0.4772 -0.0003  0.1889
    1GOFLA C404  404   4.490   4.075   1.177  0.2718  0.3033  0.8544
    1GOFLA C405  405   4.613   4.144   1.183 -0.2396 -0.5884 -0.5298
    1GOFLA C406  406   6.217   1.525   1.189  0.4871 -0.5072  0.5967
    1GOFLA C407  407   6.090   1.733   1.207  0.6822  0.1430 -0.3658
    1GOFLA C408  408   5.973   1.946   1.241  0.2255  0.2978 -0.3385
    1GOFLA C409  409   5.842   2.155   1.256 -0.0801 -0.7526 -0.3677
    1GOFLA C410  410   5.718   2.373   1.245 -0.6882 -0.7318  0.2295
    1GOFLA C411  411   5.592   2.584   1.224  0.3637  0.4218 -0.2558
    1GOFLA C412  412   5.466   2.798   1.208  0.2713 -0.1912 -0.1107
    1GOFLA C413  413   5.344   3.009   1.171 -0.0071 -0.5787  0.8384
    1GOFLA C414  414   5.214   3.223   1.216 -0.1413  0.9214  0.5381
    1GOFLA C415  415   5.088   3.434   1.203 -0.2910 -0.0731 -0.4158
    1GOFLA C416  416   4.968   3.642   1.139 -0.6407 -0.5211  0.2838
    1GOFLA C417  417   4.858   3.857   1.186  0.0328 -0.1852  0.3328
    1GOFLA C418  418   4.739   4.071   1.185  0.5942 -0.1348  0.3076
    1GOFLA H419  419   2.679   1.338   1.163 -0.6433 -0.7431  3.4063
    1GOFLA H420  420   2.560   1.539   1.203  2.2429 -2.2437 -2.2165
    1GOFLA H421  421   2.440   1.752   1.224 -0.1033  0.7637  3.8325
    1GOFLA H422  422   2.319   1.982   1.148 -0.1661  0.4139 -0.3103
    1GOFLA H423  423   2.194   2.183   1.203  1.6087 -2.0231 -1.2479
    1GOFLA H424  424   2.070   2.391   1.196 -0.8438  1.4950 -1.0310
    1GOFLA H425  425   1.955   2.594   1.153  1.3424 -1.7671  0.6228
    1GOFLA H426  426   1.829   2.828   1.214  1.3425 -2.7295 -1.2876
    1GOFLA H427  427   1.697   3.034   1.157  1.5078 -1.7544 -0.7288
    1GOFLA H428  428   1.572   3.250   1.138  0.1039 -0.6895 -0.1493
    1GOFLA H429  429   1.464   3.482   1.084  1.3310 -0.7493 -1.0592
    1GOFLA H430  430   1.331   3.669   1.172  0.9330 -1.0742 -0.0700
    1GOFLA H431  431   1.212   3.882   1.237  2.2967 -3.8277  1.0113
    1GOFLA H432  432   2.888   1.215   1.178 -0.4161  0.4182 -0.1585
    1GOFLA H433  433   1.202   4.139   1.179 -1.1755 -1.6267  1.6728
    1GOFLA H434  434   1.416   4.260   1.166  0.7768 -0.5073  0.7622
    1GOFLA H435  435   3.150   1.200   1.152  1.0805 -0.3064 -0.3826
    1GOFLA H436  436   1.662   4.263   1.198 -0.1746 -0.0241 -1.0088
    1GOFLA H437  437   3.397   1.209   1.156 -0.8802 -0.3983  1.2554
    1GOFLA H438  438   1.928   4.261   1.180  0.9847  0.2764  0.0209
    1GOFLA H439  439   3.631   1.208   1.226 -0.6181 -0.1135 -0.6969
    1GOFLA H440  440   2.155   4.260   1.195 -2.5872  0.3541  2.5913
    1GOFLA H441  441   3.899   1.206   1.221  0.7617 -0.1553  1.1284
    1GOFLA H442  442   2.417   4.260   1.176  1.7363  0.1346 -0.8399
    1GOFLA H443  443   4.127   1.212   1.186  0.8235 -0.0344 -1.6221
    1GOFLA H444  444   2.666   4.250   1.242  1.4961  0.0723 -1.4922
    1GOFLA H445  445   4.361   1.208   1.178 -1.3981  0.0209  0.8476
    1GOFLA H446  446   2.909   4.253   1.149 -0.8020  0.2083 -1.7862
    1GOFLA H447  447   4.618   1.207   1.134 -0.8731 -0.3110  2.2806
    1GOFLA H448  448   3.148   4.258   1.219 -2.1717 -0.0478  1.5584
    1GOFLA H449  449   4.857   1.213   1.101  0.9822  0.3502  1.0609
    1GOFLA H450  450   3.390   4.261   1.231  0.7990  0.3069 -1.2030
    1GOFLA H451  451   5.104   1.204   1.132 -0.5615 -0.4217 -0.9048
    1GOFLA H452  452   3.643   4.243   1.116 -1.2066 -1.1219 -1.7606
    1GOFLA H453  453   5.335   1.195   1.166 -1.4316  0.3008 -0.5908
    1GOFLA H454  454   3.873   4.255   1.176 -0.4582 -0.4643  0.6199
    1GOFLA H455  455   5.615   1.192   1.173  0.6318  0.4848 -0.0609
    1GOFLA H456  456   4.129   4.252   1.209 -1.6357  0.3308  1.1775
    1GOFLA H457  457   5.851   1.198   1.224  0.7725 -0.0248  0.9457
    1GOFLA H458  458   4.360   4.252   1.186  1.2174  0.1156 -0.2148
    1GOFLA H459  459   6.100   1.201   1.210  0.0257  0.6182 -0.7613
    1GOFLA H460  460   6.311   1.333   1.204 -0.7985 -1.8244  0.7909
    1GOFLA H461  461   4.617   4.252   1.165 -1.4714 -0.1182  1.5998
    1GOFLA H462  462   6.312   1.574   1.167  0.1595 -0.3457 -0.5254
    1GOFLA H463  463   6.183   1.784   1.181  1.6406 -1.6448 -0.6292
    1GOFLA H464  464   6.067   2.001   1.231  1.6658 -2.2447 -1.5429
    1GOFLA H465  465   5.932   2.214   1.273 -2.1830  2.4590  0.5077
    1GOFLA H466  466   5.807   2.433   1.229  0.0868 -1.6361  1.0780
    1GOFLA H467  467   5.686   2.637   1.240  0.0232  1.7434 -2.1576
    1GOFLA H468  468   5.554   2.858   1.231 -0.2197  1.2288 -1.7171
    1GOFLA H469  469   5.432   3.070   1.152 -0.6495 -0.3810 -2.0067
    1GOFLA H470  470   5.310   3.274   1.230  0.9683 -1.4539  2.1865
    1GOFLA H471  471   5.174   3.484   1.247 -0.8983 -1.7979  3.1566
    1GOFLA H472  472   4.987   3.663   1.034 -0.2257  0.8032  0.6111
    1GOFLA H473  473   4.931   3.908   1.249 -0.7319  2.5578 -0.8211
    1GOFLA H474  474   4.831   4.126   1.167  1.5191 -1.2124  1.5052
    1GOFLA O475  475   4.057   2.828   1.364  0.0647  0.4395 -0.7072
    1GOFLA O476  476   3.295   1.381   1.325 -0.5664  0.1052 -0.0628
    1GOFLA H477  477   3.282   1.295   1.365 -2.1378 -0.0143 -0.7556
    1GOFLA O478  478   3.674   2.828   1.344  0.2136 -0.3750  0.9414
    1GOFLA O479  479   4.722   1.475   1.304 -0.3745  0.0368 -0.2818
    1GOFLA H480  480   4.800   1.499   1.354  0.5880 -0.2183 -1.6040
    1GOFLA O481  481   3.261   3.599   1.335 -0.4071 -0.2108  0.0657
    1GOFLA O482  482   5.310   2.447   1.376 -0.1093  0.3872  0.4181
    1GOFLA H483  483   5.308   2.536   1.413 -1.0748  0.7925 -0.5464
    1GOFLA O484  484   2.766   3.151   1.319 -0.8586  0.0769 -0.2161
    1GOFLA O485  485   5.280   1.821   1.346  0.1082  0.5359  0.1037
    1GOFLA H486  486   5.260   1.740   1.394  0.1998 -0.5570 -1.6357
    1GOFLA O487  487   2.713   3.910   1.321  0.3808 -0.7040  0.2134
    1GOFLA O488  488   3.273   3.947   1.367  0.1751  0.1922  0.5438
    1GOFLA H489  489   3.346   4.004   1.390 -0.8335  1.6844  0.1668
    1GOFLA O490  490   4.196   2.606   1.338  0.1507 -0.3320 -0.0034
    1GOFLA O491  491   4.136   1.582   1.387  0.0358 -1.1477 -0.1476
    1GOFLA H492  492   4.142   1.671   1.422  1.6675 -0.8253 -1.1805
    1GOFLA O493  493   5.927   1.557   1.321 -0.3035  0.1448  0.6217
    1GOFLA O494  494   2.298   3.095   1.335 -0.3050 -0.5915 -0.1559
    1GOFLA H495  495   2.365   3.154   1.370  0.9241 -1.5346 -0.8386
    1GOFLA O496  496   4.970   3.153   1.292 -0.2742  0.6813 -0.3689
    1GOFLA O497  497   3.600   3.836   1.361 -0.4961 -0.3221  0.1028
    1GOFLA H498  498   3.540   3.900   1.401 -1.4055 -0.9859 -0.1376
    1GOFLA O499  499   4.444   3.902   1.335 -0.6377 -0.0515  0.1720
    1GOFLA O500  500   4.320   1.380   1.350  0.3572 -0.6334 -0.0098
    1GOFLA H501  501   4.251   1.400   1.414 -0.5568 -0.5590 -0.9943
    1GOFLA O502  502   2.829   3.480   1.326 -0.1273 -0.4084  0.1105
    1GOFLA O503  503   4.024   4.040   1.329  0.2059 -0.4522  0.1338
    1GOFLA H504  504   3.950   4.063   1.387 -0.1260 -0.6921 -0.1913
    1GOFLA O505  505   4.074   2.198   1.316 -0.2705 -0.2401 -0.1314
    1GOFLA O506  506   5.582   1.536   1.347 -0.5884 -0.1135  0.0905
    1GOFLA H507  507   5.573   1.614   1.402  2.1835 -1.4243  2.6619
    1GOFLA O508  508   2.727   2.390   1.352 -0.5952 -0.1447 -0.5708
    1GOFLA O509  509   3.843   2.452   1.347 -0.2384  0.5044  0.2669
    1GOFLA H510  510   3.851   2.364   1.384  2.5805  0.4110 -0.3448
    1GOFLA O511  511   3.807   3.482   1.357 -0.4063 -0.2935  0.0259
    1GOFLA O512  512   4.750   2.235   1.342 -0.4606 -0.3139 -0.5490
    1GOFLA H513  513   4.821   2.296   1.360  0.4187 -1.4186 -0.1844
    1GOFLA O514  514   4.544   2.621   1.300  0.1107  0.2902 -1.1920
    1GOFLA O515  515   4.320   3.291   1.338 -0.0171  0.0173  0.1434
    1GOFLA H516  516   4.288   3.370   1.382 -1.6268 -0.3498 -0.2992
    1GOFLA O517  517   3.818   1.987   1.334  0.6733  0.2980 -0.0874
    1GOFLA O518  518   2.382   2.644   1.385  0.4560 -0.1058  0.0444
    1GOFLA H519  519   2.452   2.662   1.448 -2.0818  0.7891  2.8261
    1GOFLA O520  520   2.965   1.993   1.342 -0.0461 -0.1627  0.4033
    1GOFLA O521  521   3.276   1.795   1.358  0.7854  0.1491  0.1264
    1GOFLA H522  522   3.261   1.700   1.362 -1.7373  0.4003 -1.4142
    1GOFLA O523  523   3.671   3.278   1.354  0.0917 -0.6931 -0.4576
    1GOFLA O524  524   3.354   2.076   1.340  0.2155  0.4190  0.3629
    1GOFLA H525  525   3.358   2.003   1.402 -2.7072  0.1243  0.3517
    1GOFLA O526  526   3.018   1.443   1.298 -0.1905 -0.0696 -0.1333
    1GOFLA O527  527   5.000   3.560   1.296  0.1187 -0.3833  0.3028
    1GOFLA H528  528   4.938   3.548   1.369  1.7107  1.0228  1.9863
    1GOFLA O529  529   5.031   1.530   1.300  0.0614  0.8402 -0.1835
    1GOFLA O530  530   2.423   2.175   1.370 -0.1813 -0.0605  0.3016
    1GOFLA H531  531   2.370   2.242   1.413  0.8635  0.4230  0.8702
    1GOFLA O532  532   2.769   2.761   1.324  0.2577 -0.0818 -0.3976
    1GOFLA O533  533   4.692   3.228   1.310 -0.2506  0.2660  0.6481
    1GOFLA H534  534   4.762   3.186   1.360 -0.8338 -0.7812  0.6147
    1GOFLA O535  535   5.144   2.822   1.325  0.1928  0.7032  0.2173
    1GOFLA O536  536   5.794   2.011   1.377  0.0574 -0.1086 -0.3000
    1GOFLA H537  537   5.854   2.074   1.417  0.3322  0.4169 -1.4836
    1GOFLA O538  538   4.599   2.933   1.300 -0.6921 -0.0602  0.0967
    1GOFLA O539  539   2.243   3.617   1.383 -0.5386 -0.0466  0.2338
    1GOFLA H540  540   2.162   3.656   1.415 -0.4380  0.7126 -0.3834
    1GOFLA O541  541   3.208   2.826   1.314  0.2918  0.2899 -0.5038
    1GOFLA O542  542   1.866   3.760   1.329  0.0014 -0.3016 -0.0553
    1GOFLA H543  543   1.924   3.725   1.397 -0.6723 -0.1071  0.6418
    1GOFLA O544  544   2.196   3.929   1.330 -0.0396  0.0362 -0.4561
    1GOFLA O545  545   2.237   2.804   1.346 -0.4787 -0.5957 -0.1154
    1GOFLA H546  546   2.296   2.751   1.400  0.3222 -0.1346 -0.4909
    1GOFLA O547  547   3.312   3.234   1.335 -0.0089  0.1745  0.2046
    1GOFLA O548  548   3.945   1.364   1.375 -0.1504  0.0476  0.0763
    1GOFLA H549  549   3.956   1.431   1.443 -2.0456 -0.6142  1.1048
    1GOFLA O550  550   3.549   2.609   1.317 -0.3602 -0.2304 -0.5101
    1GOFLA O551  551   6.022   1.812   1.361  0.1786 -0.8874 -0.3310
    1GOFLA H552  552   5.957   1.770   1.419 -0.5656  0.8892  0.1750
    2CURC    C1  553   3.504   2.030   2.056  0.0847 -0.5591 -0.0103
    2CURC    O2  554   3.644   1.994   2.066 -0.4573 -0.5429 -0.3919
    2CURC    C3  555   3.748   2.086   2.072  0.1802  0.0523 -0.4869
    2CURC    C4  556   3.735   2.227   2.062 -0.0257  0.0779 -0.7023
    2CURC    C5  557   3.851   2.308   2.061  0.3168  0.1128  0.2692
    2CURC    C6  558   3.831   2.448   2.050  0.2578 -0.0522 -0.4969
    2CURC    C7  559   3.923   2.545   2.030 -0.5027  0.4690 -0.0887
    2CURC    C8  560   3.880   2.685   2.011  0.6569  0.0412 -0.2832
    2CURC    O9  561   3.759   2.721   2.022 -0.6448  0.5329  0.6713
    2CURC   C10  562   3.997   2.779   1.975  0.0137 -0.5809 -0.2459
    2CURC   C11  563   3.965   2.897   1.882 -0.3719  0.2023 -0.1417
    2CURC   O12  564   3.963   2.873   1.754 -0.6079 -0.5499  0.0825
    2CURC   C13  565   3.887   3.008   1.939 -0.4322  0.7373  0.1002
    2CURC   C14  566   3.838   3.106   1.863  0.4143 -0.1031  0.2830
    2CURC   C15  567   3.752   3.213   1.898  0.8550  0.2516  0.7408
    2CURC   C16  568   3.703   3.296   1.797 -0.2549  0.9078 -0.2179
    2CURC   C17  569   3.615   3.403   1.832 -0.4248  0.4167 -0.2810
    2CURC   C18  570   3.570   3.420   1.966  0.1701  0.1109  0.1367
    2CURC   O19  571   3.488   3.515   2.022 -0.2472 -0.0280  0.6295
    2CURC   C20  572   3.576   3.304   2.046  0.1308  0.2753  0.5074
    2CURC   O21  573   3.554   3.344   2.175 -0.3586  0.1985 -0.1310
    2CURC   C22  574   3.559   3.244   2.280 -0.0689 -0.0828  1.3664
    2CURC   C23  575   3.676   3.207   2.018  0.2633 -0.1866  0.3061
    2CURC   C24  576   3.972   2.243   2.096 -0.4400 -0.1795  0.8031
    2CURC   C25  577   3.984   2.103   2.116 -0.3076 -0.6844 -0.1928
    2CURC   C26  578   3.872   2.024   2.100  0.5016  0.9237 -0.6146
    2CURC   O27  579   3.864   1.888   2.069 -0.2263 -0.0774 -0.2151
    2CURC   H28  580   3.483   2.087   2.148  0.2638 -0.2637 -0.1493
    2CURC   H29  581   3.478   2.087   1.965  0.7406  0.2430  0.2939
    2CURC   H30  582   3.448   1.938   2.069  0.3715 -0.9848 -1.6024
    2CURC   H31  583   3.657   2.263   1.995 -1.1079 -0.0305  0.4634
    2CURC   H32  584   3.732   2.480   2.017  0.1845  1.2703  0.8965
    2CURC   H33  585   4.022   2.527   2.070 -0.7532 -0.1767  0.2587
    2CURC   H34  586   4.054   2.715   1.908  0.2616  0.6872 -1.2927
    2CURC   H35  587   4.041   2.815   2.069 -0.6578  1.7120 -0.7348
    2CURC   H36  588   3.912   3.036   2.041  1.7091 -0.1475 -0.1171
    2CURC   H37  589   3.862   3.099   1.757  0.9592 -3.3795  0.5222
    2CURC   H38  590   3.725   3.269   1.695 -0.8598  0.8782 -0.3428
    2CURC   H39  591   3.587   3.485   1.766  0.1619  0.4137 -0.5420
    2CURC   H40  592   3.468   3.586   1.959 -0.1534 -0.9806 -0.5002
    2CURC   H41  593   3.658   3.207   2.312  0.1515  0.0697  0.8656
    2CURC   H42  594   3.523   3.305   2.363  0.6719  2.2818  0.0368
    2CURC   H43  595   3.482   3.167   2.265 -2.8640  2.2394  2.8188
    2CURC   H44  596   3.630   3.109   2.030 -3.4228  1.3775  0.5231
    2CURC   H45  597   4.056   2.304   2.129 -1.6645  2.1324 -0.1690
    2CURC   H46  598   4.064   2.070   2.182 -0.0813 -0.9641 -0.6017
    2CURC   H47  599   3.954   1.851   2.064  0.2144  1.0862 -2.1759
    3SOL     OW  600   0.657   2.121   3.452  0.2868 -0.4150 -0.2642
    3SOL    HW1  601   0.568   2.085   3.460 -0.7145  1.6581 -1.3169
    3SOL    HW2  602   0.646   2.216   3.465  2.4521 -0.1594  0.1274
    4SOL     OW  603   0.719   0.373   2.201  0.0556  0.9034 -0.3488
    4SOL    HW1  604   0.663   0.322   2.259 -0.3460  1.2144 -0.4524
    4SOL    HW2  605   0.799   0.389   2.252 -0.7439  2.1415  0.5666
    5SOL     OW  606   0.663   1.436   2.573  0.1261  0.2506  0.3488
    5SOL    HW1  607   0.606   1.387   2.632 -0.0130 -1.1189 -0.8465
    5SOL    HW2  608   0.604   1.469   2.505  0.7397 -1.4163 -1.0515
    6SOL     OW  609   6.688   1.682   2.559  0.3030  0.4723 -0.3427
    6SOL    HW1  610   6.702   1.601   2.609 -1.5847 -0.9428 -1.9381
    6SOL    HW2  611   6.700   1.656   2.468 -2.4189  1.4166 -1.0716
    7SOL     OW  612   1.470   1.403   2.208 -0.1787  0.6036 -0.5176
    7SOL    HW1  613   1.446   1.454   2.285  1.1037  0.3160  0.0932
    7SOL    HW2  614   1.465   1.312   2.237  0.1592  0.4852 -0.8196
    8SOL     OW  615  -0.008   0.933   2.519 -0.7834  0.2329 -0.1032
    8SOL    HW1  616  -0.026   0.839   2.512 -0.3727  0.0726  0.7822
    8SOL    HW2  617  -0.091   0.971   2.548 -0.4110 -0.1750  1.6382
    9SOL     OW  618   2.758   1.395   0.058  0.3814  0.1432  0.5186
    9SOL    HW1  619   2.668   1.416   0.081  0.9554  2.7160  0.6714
    9SOL    HW2  620   2.811   1.455   0.110  2.2429 -1.5727  0.7339
   10SOL     OW  621   0.314   1.482   0.074 -0.0424 -0.2518 -0.1440
   10SOL    HW1  622   0.284   1.506   0.161  1.5200 -1.8560  0.8948
   10SOL    HW2  623   0.365   1.558   0.044  0.7802 -0.3258  1.0343
   11SOL     OW  624   6.660   1.222   1.083 -0.2906  0.4340  0.0664
   11SOL    HW1  625   6.669   1.242   1.176 -0.5513 -0.9765  0.4288
   11SOL    HW2  626   6.698   1.297   1.038  0.6178  0.7656  1.3295
   12SOL     OW  627   0.254   0.556   1.673 -0.7884  0.4285  0.5956
   12SOL    HW1  628   0.288   0.469   1.696 -0.8472  0.1972 -0.1737
   12SOL    HW2  629   0.313   0.616   1.717 -0.0725  0.0091  0.2344
   13SOL     OW  630   0.964   3.745   0.949 -0.4411  0.6649  0.0630
   13SOL    HW1  631   1.053   3.726   0.920 -1.0543 -0.4049 -1.1957
   13SOL    HW2  632   0.936   3.818   0.893 -1.3944 -0.9755 -1.6795
   14SOL     OW  633   0.488   0.805   0.675  0.2378  0.7932  0.2597
   14SOL    HW1  634   0.567   0.766   0.636 -0.6416 -1.3572  0.4758
   14SOL    HW2  635   0.433   0.829   0.600  0.3277  0.5822  0.1248
   15SOL     OW  636   0.971   1.380   1.542 -0.4027 -0.4722 -0.3071
   15SOL    HW1  637   0.951   1.474   1.536  0.6827 -0.2484 -0.6782
   15SOL    HW2  638   1.003   1.357   1.455  0.8623 -0.8060  0.2199
   16SOL     OW  639   6.025   0.083   0.653  0.0273 -0.3378  0.5033
   16SOL    HW1  640   6.063   0.005   0.691  1.7479  0.1337 -0.1748
   16SOL    HW2  641   6.089   0.113   0.588 -1.3472  0.6842 -0.4549
   17SOL     OW  642   1.119   1.394   0.684 -0.6893 -0.0590  0.1230
   17SOL    HW1  643   1.046   1.454   0.695  0.2869  1.3143 -0.6708
   17SOL    HW2  644   1.188   1.430   0.739  0.6704  0.9030 -2.0670
   18SOL     OW  645   5.822   2.659   2.927 -0.3882  0.7513  0.1598
   18SOL    HW1  646   5.913   2.660   2.956 -1.2296  0.8759  3.1124
   18SOL    HW2  647   5.786   2.743   2.957 -1.3734  0.9325 -1.4145
   19SOL     OW  648   0.283   1.031   1.944 -0.6678 -0.5627  0.1697
   19SOL    HW1  649   0.190   1.050   1.938 -0.9720 -1.1189  2.3928
   19SOL    HW2  650   0.289   0.960   2.008  1.2331 -1.0063 -0.4351
   20SOL     OW  651   1.036   2.685   0.403 -0.1623  0.1402 -0.2161
   20SOL    HW1  652   0.967   2.742   0.437  0.0488 -0.2270  0.8489
   20SOL    HW2  653   0.990   2.605   0.377 -0.2240  0.1485 -0.1317
   21SOL     OW  654   7.375   1.767   0.585 -0.0233  0.2776  0.3645
   21SOL    HW1  655   7.304   1.809   0.536  0.5618  0.8938  0.0272
   21SOL    HW2  656   7.453   1.782   0.531  0.2313 -1.1304  0.3068
   22SOL     OW  657   6.369   2.883   0.983 -0.0168 -0.2463  0.7790
   22SOL    HW1  658   6.348   2.916   0.896 -1.0798  1.9677  1.7993
   22SOL    HW2  659   6.334   2.794   0.984 -1.6533  0.3381 -0.4770
   23SOL     OW  660   0.927   2.083   3.452 -0.2275  0.1498 -0.1615
   23SOL    HW1  661   0.938   1.989   3.467  0.8683  0.0350 -1.4917
   23SOL    HW2  662   0.834   2.092   3.429  0.1864 -1.0909 -2.7717
   24SOL     OW  663   1.210   3.692   0.772 -0.3364  0.1425 -0.7051
   24SOL    HW1  664   1.216   3.644   0.690  0.8683 -0.1453 -0.4626
   24SOL    HW2  665   1.290   3.744   0.775  0.2351 -0.7734  0.8494
   25SOL     OW  666   0.939   0.323   3.311  0.1074  0.0215 -0.0269
   25SOL    HW1  667   0.854   0.364   3.325  0.2066 -0.2141  1.3917
   25SOL    HW2  668   0.922   0.229   3.322  0.4462 -0.0735 -0.3013
   26SOL     OW  669   3.485   1.962   3.099 -0.1586  0.3347 -0.1776
   26SOL    HW1  670   3.412   2.015   3.067 -1.7538 -1.2952  0.5916
   26SOL    HW2  671   3.475   1.961   3.194 -0.6399 -1.8806 -0.1903
   27SOL     OW  672   0.912   3.348   3.229  0.1624  0.8578  0.0188
   27SOL    HW1  673   0.819   3.353   3.249 -0.4131 -2.0624 -1.3201
   27SOL    HW2  674   0.916   3.355   3.133  0.9946 -1.3065 -0.1651
   28SOL     OW  675   0.290   1.255   1.108  0.0302 -0.3197  0.8111
   28SOL    HW1  676   0.330   1.169   1.112  1.5525  0.3860  1.7508
   28SOL    HW2  677   0.332   1.298   1.034  0.6931  0.2645  1.5143
   29SOL     OW  678   2.339   2.351   2.730  0.4648  0.2980  0.1905
   29SOL    HW1  679   2.253   2.318   2.754  0.9787  0.2645  2.1329
   29SOL    HW2  680   2.395   2.273   2.727  0.4714  0.3246 -1.0127
   30SOL     OW  681   1.112   1.014   0.345 -0.5698  0.2555  0.0153
   30SOL    HW1  682   1.073   0.943   0.395 -1.1355 -0.5700 -1.5444
   30SOL    HW2  683   1.093   1.093   0.395 -0.6196 -0.5942  1.3690
   31SOL     OW  684   1.313   2.214   1.500 -0.3327 -0.4188 -0.3182
   31SOL    HW1  685   1.364   2.136   1.520  0.9101  0.3847 -0.2322
   31SOL    HW2  686   1.223   2.183   1.491 -0.4922 -1.3789  3.1501
   32SOL     OW  687   2.913   1.276   3.135 -0.0676 -0.0647 -0.2462
   32SOL    HW1  688   2.937   1.280   3.228 -0.9680 -1.6914  0.0791
   32SOL    HW2  689   2.891   1.366   3.113  3.9812  1.2210  0.0032
   33SOL     OW  690   1.938   1.729   0.018  0.0683  0.0157 -0.3954
   33SOL    HW1  691   1.879   1.802   0.036  1.1812  0.5911  1.0792
   33SOL    HW2  692   1.883   1.665  -0.027 -1.8474  0.3299  1.3522
   34SOL     OW  693   0.420   0.345   0.394 -0.3355 -0.1947 -0.0341
   34SOL    HW1  694   0.394   0.375   0.481 -1.4305 -0.1034 -0.3784
   34SOL    HW2  695   0.338   0.323   0.351  0.2585 -1.0799 -0.7466
   35SOL     OW  696   2.109   1.493   3.049 -0.1828  0.5974 -0.0464
   35SOL    HW1  697   2.174   1.543   2.999  0.3058  0.9601  0.9323
   35SOL    HW2  698   2.028   1.542   3.037  0.3295  1.7856  1.0668
   36SOL     OW  699   5.804   0.389   1.998  0.1402  0.0655 -0.2246
   36SOL    HW1  700   5.790   0.483   1.992  0.9568  0.3687  1.8203
   36SOL    HW2  701   5.780   0.355   1.912 -0.7017  2.0604 -0.8197
   37SOL     OW  702   0.645   4.657   2.098  0.0016  0.2298  0.3905
   37SOL    HW1  703   0.687   4.715   2.162 -1.7251  1.5596  0.3916
   37SOL    HW2  704   0.673   4.569   2.123 -0.7841  0.6809  3.1290
   38SOL     OW  705   1.596   1.843   2.136  0.1613  0.2075 -0.9945
   38SOL    HW1  706   1.603   1.879   2.225  1.5552  1.5900 -1.6124
   38SOL    HW2  707   1.619   1.751   2.145 -1.8603 -0.2348  0.3895
   39SOL     OW  708   2.299   2.471   0.939 -0.1875 -0.2949 -0.4888
   39SOL    HW1  709   2.294   2.411   0.865 -0.7226 -0.6261 -0.1861
   39SOL    HW2  710   2.254   2.427   1.010 -0.8035  0.5575 -0.3302
   40SOL     OW  711   2.333   4.543   1.253  0.1633  0.3243 -0.2377
   40SOL    HW1  712   2.339   4.615   1.315 -0.6487  0.8211 -0.7158
   40SOL    HW2  713   2.386   4.571   1.178 -0.1696  0.4370 -0.4326
   41SOL     OW  714   0.361   3.440   3.434  0.3188 -0.4980 -0.2104
   41SOL    HW1  715   0.404   3.435   3.519 -0.5112 -0.5967  0.2170
   41SOL    HW2  716   0.372   3.531   3.407 -0.9681  0.0203  0.8629
   42SOL     OW  717   0.550   0.995   0.133 -0.8571  0.3870 -0.0978
   42SOL    HW1  718   0.515   1.075   0.094 -1.5722 -0.0451 -0.3533
   42SOL    HW2  719   0.626   1.025   0.184 -1.8239  1.3922  0.8114
   43SOL     OW  720   0.829   0.820   0.241  0.0926 -0.2571 -0.0491
   43SOL    HW1  721   0.787   0.734   0.237 -0.2785 -0.0335 -1.1615
   43SOL    HW2  722   0.890   0.821   0.167 -0.7106  0.8356 -0.7298
   44SOL     OW  723   2.698   2.626   1.623 -0.4648 -0.6924 -0.0620
   44SOL    HW1  724   2.663   2.704   1.579  0.7686 -0.5975 -0.9053
   44SOL    HW2  725   2.786   2.616   1.588  0.2553 -1.1107  1.8046
   45SOL     OW  726   2.847   0.698   2.027  0.5240  0.1867 -0.2732
   45SOL    HW1  727   2.831   0.618   2.077  0.8781  0.3703  0.1385
   45SOL    HW2  728   2.853   0.668   1.936  2.5434 -0.5552  0.0353
   46SOL     OW  729   1.574   5.273   2.435  0.0381 -0.0630  0.1834
   46SOL    HW1  730   1.506   5.260   2.369 -0.3201 -0.1893  0.5718
   46SOL    HW2  731   1.544   5.349   2.485 -0.0127 -0.3526  0.5944
   47SOL     OW  732   0.586   0.079   3.020 -0.2698 -0.3833 -0.3265
   47SOL    HW1  733   0.586   0.102   3.113 -3.2897 -0.4318 -0.2083
   47SOL    HW2  734   0.549  -0.008   3.017 -0.8524 -0.1115 -1.6222
   48SOL     OW  735   1.314   2.355   2.853 -0.4251  0.0663 -0.3473
   48SOL    HW1  736   1.333   2.441   2.890  0.3564 -0.8745  1.5861
   48SOL    HW2  737   1.308   2.371   2.758 -0.3525  2.2297 -0.0491
   49SOL     OW  738   0.140   2.020   3.150 -0.2428  0.1250  0.3395
   49SOL    HW1  739   0.227   1.994   3.119 -0.4772 -1.4497  0.9096
   49SOL    HW2  740   0.157   2.063   3.234  0.0667  0.8401 -0.0816
   50SOL     OW  741   0.930   4.402   2.812  0.4446  0.0396 -0.0444
   50SOL    HW1  742   0.867   4.366   2.749  0.6266 -0.1631 -0.1130
   50SOL    HW2  743   0.918   4.348   2.891  0.6006 -0.0623 -0.0904
   51SOL     OW  744   1.783   1.072   1.205  0.1050 -0.0640 -0.4464
   51SOL    HW1  745   1.861   1.114   1.241  0.8191 -1.2881 -0.4945
   51SOL    HW2  746   1.750   1.134   1.141  2.3651 -0.4178 -2.0979
   52SOL     OW  747   2.461   0.131   0.983 -0.4581 -0.3786  0.1866
   52SOL    HW1  748   2.443   0.219   1.017 -0.3976 -0.9152  1.6757
   52SOL    HW2  749   2.555   0.119   0.996 -0.0194  0.1442 -2.0771
   53SOL     OW  750   0.631   0.882   2.704 -0.4318  0.2521 -0.2774
   53SOL    HW1  751   0.626   0.788   2.719  0.7959  0.3277  0.7922
   53SOL    HW2  752   0.702   0.893   2.640  0.1153  0.4939  0.3528
   54SOL     OW  753   1.799   1.221   3.038  0.1276 -0.4487  0.4798
   54SOL    HW1  754   1.812   1.199   2.945 -1.5381 -0.0036  0.0950
   54SOL    HW2  755   1.876   1.187   3.082  1.0010 -0.6037 -1.0862
   55SOL     OW  756   6.863   2.187   1.302  0.3851 -0.3840  0.1402
   55SOL    HW1  757   6.887   2.226   1.386  0.5543 -0.7937  0.2811
   55SOL    HW2  758   6.897   2.098   1.306 -0.9302 -0.8949  0.2442
   56SOL     OW  759   1.554   0.419   1.850  0.7430  0.0009  0.0951
   56SOL    HW1  760   1.502   0.464   1.783  1.1451 -0.9118 -0.8479
   56SOL    HW2  761   1.490   0.394   1.917  0.3679  1.1140  0.1725
   57SOL     OW  762   6.697   1.255   3.068  0.3280 -0.7199  0.5631
   57SOL    HW1  763   6.745   1.200   3.006 -0.6004  0.2666 -1.1310
   57SOL    HW2  764   6.754   1.262   3.144  2.4770 -0.3312 -0.9931
   58SOL     OW  765   0.191   2.134   1.068  0.2011 -0.3499  0.0792
   58SOL    HW1  766   0.162   2.129   1.160  0.0323  0.3721  0.0738
   58SOL    HW2  767   0.117   2.100   1.018  0.7989 -2.0224  0.2718
   59SOL     OW  768   1.936   0.853   1.176 -0.2351 -0.3909  0.2237
   59SOL    HW1  769   1.874   0.926   1.169  1.7896  1.3372 -1.3799
   59SOL    HW2  770   1.991   0.876   1.251 -2.1826 -2.5745  2.4761
   60SOL     OW  771   1.450   2.224   1.916 -0.5049 -0.3304  0.2228
   60SOL    HW1  772   1.437   2.317   1.897 -0.2464 -0.8060 -2.6731
   60SOL    HW2  773   1.530   2.221   1.968 -0.3923  1.0541  0.1705
   61SOL     OW  774   1.274   1.204   1.111  0.1989  0.0639 -0.3071
   61SOL    HW1  775   1.242   1.171   1.027 -0.2034 -1.0620  0.2633
   61SOL    HW2  776   1.246   1.138   1.175  3.5795 -0.9892  0.2659
   62SOL     OW  777   0.373   0.310   1.692 -0.0998  0.6551  0.1135
   62SOL    HW1  778   0.372   0.328   1.598 -1.8687 -0.3128 -0.0909
   62SOL    HW2  779   0.395   0.217   1.699  1.5798  1.0621  0.7718
   63SOL     OW  780   0.313   2.457   3.109  0.4060 -0.4717  0.4639
   63SOL    HW1  781   0.252   2.480   3.179  0.7709 -1.2977  1.0690
   63SOL    HW2  782   0.272   2.492   3.029 -1.4370 -1.9657  0.6715
   64SOL     OW  783   0.413   3.311   2.462 -0.0176  0.2133 -0.1424
   64SOL    HW1  784   0.465   3.232   2.472  2.4300  1.6830 -0.3667
   64SOL    HW2  785   0.323   3.284   2.482  0.9061 -2.3155  0.9905
   65SOL     OW  786   2.329   4.278   2.786  0.5972 -0.3840  0.4841
   65SOL    HW1  787   2.264   4.325   2.735  0.8617 -0.3190  0.2000
   65SOL    HW2  788   2.365   4.343   2.845 -0.0679 -0.5782  1.1155
   66SOL     OW  789   6.348   2.631   1.623 -0.5989 -0.5148  1.0390
   66SOL    HW1  790   6.389   2.598   1.703 -0.7505 -2.3388  0.4063
   66SOL    HW2  791   6.288   2.699   1.653 -0.2903 -0.8333  2.4315
   67SOL     OW  792   7.218   0.666   0.908 -0.1850 -0.0370  0.6818
   67SOL    HW1  793   7.171   0.745   0.881 -1.6242 -0.5981  1.3909
   67SOL    HW2  794   7.289   0.697   0.963  0.1723  0.8442 -0.2558
   68SOL     OW  795   1.525   1.501   0.128 -0.0122  0.4448  0.4142
   68SOL    HW1  796   1.453   1.543   0.082  0.3205 -1.6787 -2.3193
   68SOL    HW2  797   1.494   1.412   0.146  1.7774 -0.4735 -0.6927
   69SOL     OW  798   1.372   5.093   2.746 -0.2098 -0.4718 -0.2059
   69SOL    HW1  799   1.294   5.075   2.798 -0.0554 -0.4169  0.0433
   69SOL    HW2  800   1.338   5.115   2.659 -0.6671  2.6148  0.6498
   70SOL     OW  801   2.673   3.318   0.844  0.4085  0.6944  0.2580
   70SOL    HW1  802   2.751   3.328   0.899  1.1827 -0.3734 -0.6083
   70SOL    HW2  803   2.607   3.374   0.886 -0.2834 -2.7308  4.5833
   71SOL     OW  804   7.106   4.442   1.182  0.9200  0.0895  0.3332
   71SOL    HW1  805   7.059   4.403   1.108 -1.2494  0.4926  1.4052
   71SOL    HW2  806   7.188   4.393   1.188 -0.5108 -2.5353 -0.0126
   72SOL     OW  807   0.540   1.170   1.961  0.2261  0.0577 -0.0745
   72SOL    HW1  808   0.493   1.233   1.907 -0.1827  0.6795  0.9659
   72SOL    HW2  809   0.473   1.106   1.986  0.8183 -1.3035 -1.8146
   73SOL     OW  810   0.703   4.889   1.570  0.5087 -0.0238  0.4701
   73SOL    HW1  811   0.753   4.866   1.649  0.4927 -0.0432  0.4746
   73SOL    HW2  812   0.618   4.918   1.604  0.1359 -1.0021  0.4119
   74SOL     OW  813   0.398   0.931   1.069  0.1724 -0.0418  0.1302
   74SOL    HW1  814   0.342   0.861   1.038 -1.4651  1.5443 -0.6821
   74SOL    HW2  815   0.480   0.919   1.020 -0.4633 -0.7510 -0.7966
   75SOL     OW  816   0.321   5.296   1.173  0.2647  0.1146  0.0944
   75SOL    HW1  817   0.258   5.279   1.244  1.9146  0.3236  1.6932
   75SOL    HW2  818   0.335   5.391   1.177  0.6777  0.0676 -0.2633
   76SOL     OW  819   0.050   1.419   1.443  0.0541 -0.4866  0.1070
   76SOL    HW1  820   0.133   1.423   1.397 -0.1110 -0.6636 -0.2093
   76SOL    HW2  821   0.068   1.458   1.529  0.1427  0.7051 -0.4296
   77SOL     OW  822   1.051   1.032   2.396 -0.6327  0.1473 -0.4367
   77SOL    HW1  823   1.123   1.006   2.339  0.7003  1.1528  0.6933
   77SOL    HW2  824   1.079   1.005   2.484 -2.1772 -0.4739 -0.0901
   78SOL     OW  825   7.384   1.642   2.878 -0.6306  0.0922  0.2340
   78SOL    HW1  826   7.291   1.665   2.872 -0.2653  1.4911 -0.4020
   78SOL    HW2  827   7.401   1.632   2.971 -0.9874  1.7746  0.5044
   79SOL     OW  828   1.740   5.150   0.689 -0.3994 -0.3606 -0.3466
   79SOL    HW1  829   1.834   5.149   0.669 -0.1702 -1.2035  0.6689
   79SOL    HW2  830   1.718   5.243   0.694 -0.0161 -0.1221 -2.2509
   80SOL     OW  831   0.767   4.909   0.485  0.5582 -0.7649 -0.2859
   80SOL    HW1  832   0.814   4.973   0.538 -0.1810 -0.5344  0.1113
   80SOL    HW2  833   0.695   4.958   0.445  0.0022 -1.3212 -0.0030
   81SOL     OW  834   0.570   3.473   0.838 -0.0626  0.9229 -0.1418
   81SOL    HW1  835   0.517   3.407   0.793 -0.6609  2.1158 -1.2623
   81SOL    HW2  836   0.607   3.427   0.913 -3.0194  0.1353  0.9579
   82SOL     OW  837   1.025   4.701   3.447  0.0024 -0.0537 -0.3623
   82SOL    HW1  838   1.054   4.632   3.387  0.5521  0.5238 -0.7785
   82SOL    HW2  839   0.955   4.661   3.498 -0.0220 -0.7644 -0.9370
   83SOL     OW  840   0.387   0.186   2.146  0.2521 -0.1126  0.2428
   83SOL    HW1  841   0.458   0.198   2.209  1.5131  0.7448 -1.2735
   83SOL    HW2  842   0.406   0.249   2.076 -2.4238  0.6916  0.1229
   84SOL     OW  843   0.936   4.845   0.955 -0.6394 -0.1220  0.1737
   84SOL    HW1  844   0.914   4.871   0.865 -0.4306  0.8503  0.3915
   84SOL    HW2  845   0.932   4.926   1.005 -1.2452 -0.7382  1.1538
   85SOL     OW  846   6.091   5.250   1.826 -0.5476  0.0732  0.3787
   85SOL    HW1  847   6.179   5.288   1.836  0.6527 -1.8259 -2.0289
   85SOL    HW2  848   6.092   5.209   1.740 -3.1106 -1.8668  1.1474
   86SOL     OW  849   6.947   4.795   0.220 -0.2705  0.0959 -0.3331
   86SOL    HW1  850   6.897   4.811   0.300  0.1329  2.8431 -0.5460
   86SOL    HW2  851   6.891   4.737   0.168 -1.2583 -0.4273  1.2268
   87SOL     OW  852   1.338   0.180   0.619  0.7410  0.3029 -0.1235
   87SOL    HW1  853   1.311   0.217   0.535  0.5940  1.3262  0.3610
   87SOL    HW2  854   1.285   0.226   0.684 -2.1121 -3.2623  0.3482
   88SOL     OW  855   1.788   1.096   0.796 -0.3660  0.0830  0.0493
   88SOL    HW1  856   1.756   1.151   0.867 -0.9569 -1.4000  0.9736
   88SOL    HW2  857   1.883   1.103   0.800 -0.4227  0.6174  0.4725
   89SOL     OW  858   0.350   0.286   3.207  0.4503  0.5467  0.0775
   89SOL    HW1  859   0.414   0.240   3.260  0.2628 -0.5109 -0.5960
   89SOL    HW2  860   0.290   0.325   3.271  0.8092  0.1602  0.6594
   90SOL     OW  861   1.275   2.174   2.227 -0.2012  0.0835  0.2345
   90SOL    HW1  862   1.351   2.208   2.274 -0.9977  2.3823  0.0150
   90SOL    HW2  863   1.311   2.113   2.163  1.2458 -0.2346  1.2943
   91SOL     OW  864   2.230   1.012   1.164  0.3437  0.2827  0.7658
   91SOL    HW1  865   2.189   0.991   1.080  0.5521  1.6453  0.2886
   91SOL    HW2  866   2.159   1.052   1.215  0.7431  1.5329  0.3817
   92SOL     OW  867   6.952   1.457   0.791 -0.3037  0.0334 -0.6525
   92SOL    HW1  868   7.013   1.400   0.837 -0.5465  1.9723  2.3800
   92SOL    HW2  869   6.887   1.398   0.753  1.0090 -1.8148 -0.1507
   93SOL     OW  870   1.759   5.176   1.491 -0.0037 -0.6796 -0.2739
   93SOL    HW1  871   1.776   5.233   1.416  0.7321 -0.5536 -0.0259
   93SOL    HW2  872   1.813   5.098   1.475 -1.1758 -1.4198 -0.7196
   94SOL     OW  873   1.522   2.635   3.406  0.0471  0.1071  0.5209
   94SOL    HW1  874   1.561   2.559   3.451  1.3375 -0.1779 -0.9982
   94SOL    HW2  875   1.508   2.605   3.316 -0.0978  1.4550  0.0764
   95SOL     OW  876   0.876   0.432   2.750  0.2359 -0.3719  0.3826
   95SOL    HW1  877   0.895   0.429   2.843  0.0414 -1.2578  0.4060
   95SOL    HW2  878   0.928   0.361   2.712  1.2496  0.7317 -0.3766
   96SOL     OW  879   1.828   0.038   1.782 -0.4370  0.3120 -0.5110
   96SOL    HW1  880   1.877   0.050   1.700 -0.4101 -1.4020 -0.7852
   96SOL    HW2  881   1.770   0.114   1.787  0.4978  1.1227 -1.4383
   97SOL     OW  882   6.133   1.292   2.377 -0.5865 -0.1033  0.6916
   97SOL    HW1  883   6.221   1.316   2.407  0.0567 -1.9077  0.3501
   97SOL    HW2  884   6.080   1.289   2.457 -0.0101 -0.2851  1.0719
   98SOL     OW  885   0.999   1.168   3.450 -0.1514 -0.1215  0.4210
   98SOL    HW1  886   1.080   1.124   3.476 -0.1877 -0.0314  0.6849
   98SOL    HW2  887   1.028   1.251   3.412  0.0186 -0.9783 -1.4206
   99SOL     OW  888   0.484   0.512   2.543 -0.4195 -0.1098 -0.1683
   99SOL    HW1  889   0.509   0.514   2.636  0.4551 -2.2912 -0.2994
   99SOL    HW2  890   0.538   0.580   2.502  0.7059 -0.5030  0.6108
  100SOL     OW  891   1.620   0.879   0.098  0.1585 -0.8703 -0.4884
  100SOL    HW1  892   1.638   0.932   0.176 -0.5394 -0.4331 -0.6187
  100SOL    HW2  893   1.620   0.789   0.131 -0.8519 -0.6477  0.1723
  101SOL     OW  894   1.045   0.307   0.131 -0.1317 -0.4438 -0.0604
  101SOL    HW1  895   1.140   0.301   0.131 -0.0883 -0.1396  1.2196
  101SOL    HW2  896   1.027   0.400   0.118 -0.2614 -0.5545 -0.6674
  102SOL     OW  897   0.685   0.458   1.117 -0.6046 -0.5956  0.0624
  102SOL    HW1  898   0.643   0.400   1.180 -0.9222  0.3670  0.7511
  102SOL    HW2  899   0.779   0.443   1.129 -0.6747 -0.6773  0.5189
  103SOL     OW  900   1.039   0.595   0.110  0.1146 -0.0388  0.5296
  103SOL    HW1  901   0.985   0.672   0.098  0.1511  0.0533  0.9498
  103SOL    HW2  902   1.128   0.629   0.118  0.6097 -0.3047 -2.4566
  104SOL     OW  903   0.135   0.566   0.871 -0.5318  0.0953  0.6500
  104SOL    HW1  904   0.157   0.489   0.923  0.4889  0.0217  0.1299
  104SOL    HW2  905   0.163   0.640   0.924  0.9914  0.0050  0.0248
  105SOL     OW  906   2.506   4.627   2.267 -0.1643 -0.1159 -0.7672
  105SOL    HW1  907   2.525   4.708   2.314 -0.7649 -1.0640  1.2291
  105SOL    HW2  908   2.532   4.644   2.176 -0.8694  2.5010 -0.5425
  106SOL     OW  909   6.993   3.256   1.237 -0.0877 -0.0756 -0.0525
  106SOL    HW1  910   7.047   3.257   1.316 -1.7212  0.8934  1.1156
  106SOL    HW2  911   7.050   3.220   1.170  1.9535  0.7614  1.1325
  107SOL     OW  912   0.539   2.724   0.267  0.1719 -0.3049 -0.0556
  107SOL    HW1  913   0.615   2.773   0.298  0.9596 -0.2648 -1.9393
  107SOL    HW2  914   0.514   2.669   0.342  1.5172  0.2915  0.8728
  108SOL     OW  915   0.862   5.158   1.463 -0.6474  0.3100  0.1210
  108SOL    HW1  916   0.929   5.161   1.531  0.3747  0.5147 -0.8726
  108SOL    HW2  917   0.827   5.069   1.469  0.2899 -0.0686  0.1096
  109SOL     OW  918   2.386   2.303   3.407  0.1064  0.7569 -0.0062
  109SOL    HW1  919   2.442   2.351   3.467 -4.3031  3.8099  2.1859
  109SOL    HW2  920   2.350   2.369   3.349 -0.4917 -1.2062 -2.0307
  110SOL     OW  921   2.074   1.139   0.801 -0.5173 -0.3571  0.0012
  110SOL    HW1  922   2.135   1.066   0.808 -0.2651 -0.2279 -0.6750
  110SOL    HW2  923   2.130   1.214   0.777 -0.8886 -0.1576 -0.2611
  111SOL     OW  924   1.085   0.722   3.059 -0.0032 -0.3377 -0.1006
  111SOL    HW1  925   1.141   0.645   3.072  1.1806  0.3825 -0.7436
  111SOL    HW2  926   1.088   0.770   3.141  0.6346 -0.1119 -0.2544
  112SOL     OW  927   6.480   0.575   0.954  0.4435  0.3710 -0.3440
  112SOL    HW1  928   6.520   0.582   0.867 -0.4631  1.3818 -0.7011
  112SOL    HW2  929   6.555   0.568   1.014  1.0765 -1.1250 -1.2376
  113SOL     OW  930   0.704   5.294   1.934 -0.0272 -0.4069 -0.2486
  113SOL    HW1  931   0.686   5.388   1.935  0.5481 -0.2955  0.1212
  113SOL    HW2  932   0.618   5.253   1.925 -0.4582  0.1058  1.2174
  114SOL     OW  933   0.563   2.457   2.694 -0.1754  0.0819  0.0294
  114SOL    HW1  934   0.622   2.418   2.759 -0.0468 -1.1207 -0.7681
  114SOL    HW2  935   0.535   2.539   2.733  0.4118 -0.3058  1.3239
  115SOL     OW  936   7.150   4.542   1.422  0.2407  0.3517  0.3283
  115SOL    HW1  937   7.142   4.462   1.475 -0.1071  1.3588  1.8818
  115SOL    HW2  938   7.132   4.513   1.333 -0.3930 -1.2226  0.9140
  116SOL     OW  939   0.450   0.810   1.492  0.2950 -0.0327  0.2150
  116SOL    HW1  940   0.461   0.842   1.581  2.1667 -0.6922  0.2761
  116SOL    HW2  941   0.440   0.890   1.440  0.2947  0.4207  0.8965
  117SOL     OW  942   6.772   1.325   0.621  0.5936 -0.2336 -0.4890
  117SOL    HW1  943   6.804   1.238   0.597 -2.1090 -1.6396  0.5636
  117SOL    HW2  944   6.781   1.377   0.541  2.1679 -1.4788 -1.1825
  118SOL     OW  945   0.562   5.339   0.352 -0.1305 -0.0250 -0.1991
  118SOL    HW1  946   0.621   5.287   0.297  0.2280  1.3059 -1.1190
  118SOL    HW2  947   0.506   5.385   0.291 -0.4888  0.6152  0.5928
  119SOL     OW  948   0.702   0.205   2.567  0.2234 -0.4628 -0.1535
  119SOL    HW1  949   0.733   0.254   2.643  0.5122 -0.9923  0.0717
  119SOL    HW2  950   0.766   0.135   2.555 -0.5158 -1.1605 -0.0930
  120SOL     OW  951   0.440   1.410   2.808 -0.4279 -0.1800 -0.7579
  120SOL    HW1  952   0.400   1.497   2.794 -1.8639 -0.7753 -0.5590
  120SOL    HW2  953   0.399   1.355   2.742 -0.3221 -0.9471 -0.1885
  121SOL     OW  954   0.428   1.879   0.384  0.1794 -0.2954 -0.2507
  121SOL    HW1  955   0.499   1.904   0.443 -0.2094 -2.3118  1.1819
  121SOL    HW2  956   0.469   1.821   0.320  0.1286 -0.1181 -0.4452
  122SOL     OW  957   1.368   1.490   2.448 -0.1552  0.3294  0.0376
  122SOL    HW1  958   1.424   1.435   2.503 -0.1990  1.5188  1.3265
  122SOL    HW2  959   1.361   1.572   2.496 -2.5089  0.4339 -0.3780
  123SOL     OW  960   1.008   2.308   1.144 -0.0853 -0.5139 -0.0947
  123SOL    HW1  961   0.915   2.310   1.165 -0.3201 -0.6784 -1.0498
  123SOL    HW2  962   1.033   2.215   1.152  0.3162 -0.3008  1.4054
  124SOL     OW  963   0.272   5.342   2.051 -0.0096 -0.3192 -0.3830
  124SOL    HW1  964   0.320   5.266   2.083 -0.3818  0.0238  1.1111
  124SOL    HW2  965   0.331   5.416   2.065  0.2564 -0.2847 -1.5960
  125SOL     OW  966  -0.005   2.702   2.684  0.2123 -0.4674  0.9849
  125SOL    HW1  967  -0.063   2.747   2.623 -0.6687 -2.0440  0.6012
  125SOL    HW2  968   0.035   2.631   2.632  1.6280 -0.1156  1.5372
  126SOL     OW  969   7.067   0.652   2.638  0.0107 -1.1708 -0.1205
  126SOL    HW1  970   7.001   0.585   2.617 -0.8085  0.1451 -2.0174
  126SOL    HW2  971   7.109   0.620   2.718 -2.7574 -2.2086  1.0373
  127SOL     OW  972   6.932   0.308   0.170  0.2697  0.2421 -0.1758
  127SOL    HW1  973   6.862   0.312   0.235  2.3974 -2.1224  2.5415
  127SOL    HW2  974   6.905   0.239   0.110  0.8014 -1.8273  1.7947
  128SOL     OW  975   2.836   1.783   0.909 -0.7201  0.2849 -0.1046
  128SOL    HW1  976   2.851   1.779   1.004 -0.0428 -0.0925 -0.2258
  128SOL    HW2  977   2.745   1.753   0.899 -0.1650 -1.6876  0.2594
  129SOL     OW  978   7.179   1.277   0.685 -0.2053 -0.6713 -0.4356
  129SOL    HW1  979   7.167   1.342   0.616  0.9178  0.9320  0.7988
  129SOL    HW2  980   7.274   1.275   0.700 -0.3048 -1.9723  0.1636
  130SOL     OW  981   2.130   3.406   0.165  0.0116  0.3378 -0.5825
  130SOL    HW1  982   2.216   3.378   0.135  0.3682 -0.3296  0.9459
  130SOL    HW2  983   2.093   3.329   0.208 -0.6845  1.0676  0.1750
  131SOL     OW  984   2.584   1.871   3.372 -0.4527 -0.7108 -0.6719
  131SOL    HW1  985   2.677   1.887   3.359  0.0751 -0.8435  2.1435
  131SOL    HW2  986   2.555   1.824   3.294  1.9235 -0.9718 -1.4541
  132SOL     OW  987   7.190   0.405   0.534 -0.3161 -0.3424  0.2393
  132SOL    HW1  988   7.249   0.460   0.587 -1.4691 -0.3039  1.5369
  132SOL    HW2  989   7.245   0.331   0.507  0.6939  0.3829  0.2286
  133SOL     OW  990   1.576   1.290   3.228  0.0085  0.8676 -0.3947
  133SOL    HW1  991   1.610   1.228   3.293 -1.5347  1.4863  1.1022
  133SOL    HW2  992   1.647   1.300   3.165  1.4164 -0.1306  0.9352
  134SOL     OW  993   1.099   2.020   2.439 -0.1942  0.5082  0.4143
  134SOL    HW1  994   1.130   2.111   2.443 -0.3822  0.6029 -0.2075
  134SOL    HW2  995   1.164   1.975   2.386 -0.9971  0.6715 -0.7563
  135SOL     OW  996   0.786   5.142   1.202 -0.2180  0.0770  0.1352
  135SOL    HW1  997   0.805   5.150   1.296  0.1099  1.3071 -0.0132
  135SOL    HW2  998   0.691   5.147   1.196 -0.2396  0.0087  0.4030
  136SOL     OW  999   0.119   0.012   1.520 -0.1815  0.3263 -0.0902
  136SOL    HW1 1000   0.133  -0.014   1.611 -0.9317  0.2464  0.0148
  136SOL    HW2 1001   0.124  -0.070   1.471 -0.3557  0.2851 -0.0417
  137SOL     OW 1002   2.262   1.916   2.687  0.2150 -0.2992  0.2039
  137SOL    HW1 1003   2.274   1.975   2.761 -0.0318 -2.4161  2.0451
  137SOL    HW2 1004   2.347   1.873   2.676 -0.1891 -1.1470  0.3238
  138SOL     OW 1005   6.395   2.709   0.552 -0.0605 -0.1065  0.7241
  138SOL    HW1 1006   6.305   2.681   0.530  0.1297  0.7918 -1.4348
  138SOL    HW2 1007   6.450   2.665   0.487  0.7485  1.4441  0.3081
  139SOL     OW 1008   0.697   0.701   1.855 -0.0709 -0.3975 -0.5384
  139SOL    HW1 1009   0.708   0.607   1.871 -2.3142 -0.8626 -1.3316
  139SOL    HW2 1010   0.785   0.738   1.867  0.7231 -2.4642  0.5258
  140SOL     OW 1011   0.911   1.831   2.494 -0.8414  0.3553  0.0049
  140SOL    HW1 1012   0.980   1.894   2.472 -0.3693 -0.5166 -1.1218
  140SOL    HW2 1013   0.952   1.771   2.556 -1.5155  1.5451  1.6662
  141SOL     OW 1014   1.770   1.136   2.533 -0.4588 -0.2975 -0.0869
  141SOL    HW1 1015   1.785   1.043   2.516 -2.4755 -0.7981  0.6157
  141SOL    HW2 1016   1.836   1.158   2.599  2.5483 -0.1814 -2.8947
  142SOL     OW 1017   7.084   4.295   1.512 -0.4606 -0.5448 -0.1288
  142SOL    HW1 1018   7.144   4.244   1.457 -0.1086 -1.0788  0.7427
  142SOL    HW2 1019   7.047   4.231   1.573  0.5271  0.3424  1.4578
  143SOL     OW 1020   1.106   0.245   1.352 -0.5072  0.2916 -0.7300
  143SOL    HW1 1021   1.057   0.163   1.359  1.5337 -1.0622 -1.3496
  143SOL    HW2 1022   1.183   0.232   1.407 -0.0331  1.7223 -1.0087
  144SOL     OW 1023   0.451   1.178   0.476  0.6421 -0.3076  0.1380
  144SOL    HW1 1024   0.405   1.108   0.430 -0.2326 -0.5005  1.2766
  144SOL    HW2 1025   0.414   1.177   0.564  0.8611  1.3558  0.2765
  145SOL     OW 1026   1.239   1.939   0.798  0.1862  0.1935  0.1666
  145SOL    HW1 1027   1.302   1.872   0.825 -0.5511 -0.0976  1.2216
  145SOL    HW2 1028   1.290   2.019   0.792  1.5239 -0.7305 -2.9610
  146SOL     OW 1029   0.614   1.397   3.022 -0.5243 -0.3347 -0.3106
  146SOL    HW1 1030   0.661   1.316   3.004  0.9271  0.4213 -0.0592
  146SOL    HW2 1031   0.583   1.426   2.936  0.8260 -0.0557 -0.7324
  147SOL     OW 1032   1.663   4.352   0.499  0.0209  0.4259 -0.1842
  147SOL    HW1 1033   1.577   4.391   0.516  0.0941  0.6920 -0.4250
  147SOL    HW2 1034   1.690   4.388   0.415 -0.8015 -1.6269 -1.4120
  148SOL     OW 1035   0.225   3.412   1.662  0.1443 -0.3223  0.0233
  148SOL    HW1 1036   0.188   3.331   1.628 -0.9723  0.1454  0.0435
  148SOL    HW2 1037   0.283   3.384   1.733 -1.0367 -1.0741  0.7465
  149SOL     OW 1038   1.656   0.066   3.318  0.5639 -0.0745  0.5804
  149SOL    HW1 1039   1.668  -0.027   3.301  1.4770 -0.0407  0.9476
  149SOL    HW2 1040   1.633   0.103   3.233 -2.8572 -1.0352  0.9598
  150SOL     OW 1041   1.057   0.994   1.974 -0.4317  0.5922  0.5946
  150SOL    HW1 1042   0.970   1.027   1.995 -0.7182  0.9430 -1.0228
  150SOL    HW2 1043   1.108   1.073   1.953 -0.1927  0.2739 -0.0522
  151SOL     OW 1044   1.630   3.304   1.753 -0.0105 -0.4546 -0.5124
  151SOL    HW1 1045   1.551   3.279   1.802 -0.4087  1.0782 -0.3163
  151SOL    HW2 1046   1.697   3.318   1.820 -0.3166  0.7922 -0.4393
  152SOL     OW 1047   2.025   5.340   1.143  0.5330 -0.6740 -0.0187
  152SOL    HW1 1048   2.045   5.428   1.109 -1.8721 -0.2635 -0.5326
  152SOL    HW2 1049   2.067   5.338   1.229 -1.5635  2.0555  1.2009
  153SOL     OW 1050   1.997   0.262   2.359 -0.0905 -0.1593 -0.3467
  153SOL    HW1 1051   1.964   0.258   2.269 -1.5048 -1.2482  0.1686
  153SOL    HW2 1052   1.995   0.354   2.382  1.8757  0.3527 -1.9502
  154SOL     OW 1053   2.088   1.536   0.197 -0.1151  0.0656 -0.1239
  154SOL    HW1 1054   2.010   1.518   0.250 -0.2150  0.9197  0.0307
  154SOL    HW2 1055   2.055   1.589   0.124  0.1240 -0.5936 -0.7162
  155SOL     OW 1056   7.128   0.569   1.230 -0.2957  0.0282 -0.1428
  155SOL    HW1 1057   7.155   0.578   1.138  0.7610  0.2533  0.1758
  155SOL    HW2 1058   7.065   0.497   1.229  0.3322 -0.5273 -0.9237
  156SOL     OW 1059   1.058   2.184   0.411 -0.1403  1.2594  0.7954
  156SOL    HW1 1060   1.045   2.095   0.440  1.2941  0.7749  0.0812
  156SOL    HW2 1061   1.071   2.235   0.491 -0.7406  0.7969  1.1898
  157SOL     OW 1062   0.407   4.735   2.726  0.0636 -0.1315 -0.3549
  157SOL    HW1 1063   0.469   4.664   2.714 -0.0513 -0.2107 -0.4789
  157SOL    HW2 1064   0.323   4.692   2.744  0.5505 -0.0282  2.5039
  158SOL     OW 1065   2.213   2.027   1.557 -0.4843  0.2662  0.0720
  158SOL    HW1 1066   2.249   2.115   1.565  1.0347 -0.1061 -1.9592
  158SOL    HW2 1067   2.273   1.971   1.606  1.4506 -0.2446 -2.6757
  159SOL     OW 1068   1.298   4.023   1.760  0.0325 -0.3576  0.0655
  159SOL    HW1 1069   1.202   4.024   1.766 -0.0182 -1.8839 -0.1305
  159SOL    HW2 1070   1.316   4.020   1.666  0.2445 -1.0672  0.1255
  160SOL     OW 1071   6.555   1.414   0.801 -0.3529 -0.1574 -0.1133
  160SOL    HW1 1072   6.605   1.430   0.881  0.1468 -2.2703  0.0633
  160SOL    HW2 1073   6.621   1.388   0.737 -0.6279  2.4004 -1.5688
  161SOL     OW 1074   6.823   1.179   2.746  0.4061 -0.3263 -0.2580
  161SOL    HW1 1075   6.815   1.115   2.817  0.9517  0.3879  0.4643
  161SOL    HW2 1076   6.890   1.240   2.776  2.9942 -1.6971 -2.6373
  162SOL     OW 1077   0.358   1.479   0.646 -0.1132  0.0618  0.8624
  162SOL    HW1 1078   0.266   1.478   0.619 -0.0253 -0.8714  0.5789
  162SOL    HW2 1079   0.399   1.545   0.590  0.1216 -2.0223 -1.5593
  163SOL     OW 1080   0.187   1.768   0.819  0.3267 -0.3500  0.9935
  163SOL    HW1 1081   0.252   1.697   0.813 -0.3112 -0.8421 -0.6914
  163SOL    HW2 1082   0.195   1.814   0.735 -0.8493  0.1580  1.1438
  164SOL     OW 1083   2.495   1.564   2.173 -0.0103 -0.8079  0.3814
  164SOL    HW1 1084   2.519   1.544   2.263 -0.2966  1.6597  1.0713
  164SOL    HW2 1085   2.400   1.551   2.170  0.1890 -2.4024 -0.0442
  165SOL     OW 1086   0.947   0.825   3.513  0.0219  0.0341 -0.3380
  165SOL    HW1 1087   0.857   0.836   3.483  0.0998  0.7991 -0.3007
  165SOL    HW2 1088   0.996   0.807   3.433 -0.1143 -0.0856 -0.3953
  166SOL     OW 1089   0.160   4.348   3.192  0.7554 -0.2579 -0.1581
  166SOL    HW1 1090   0.142   4.265   3.236 -0.5586 -0.1179 -0.3760
  166SOL    HW2 1091   0.253   4.344   3.170  0.7752 -1.5541  0.0599
  167SOL     OW 1092   2.877   2.386   0.289 -0.1533 -0.1210  0.4680
  167SOL    HW1 1093   2.894   2.462   0.232  0.3603 -0.1349  0.5942
  167SOL    HW2 1094   2.833   2.423   0.365 -0.7953 -0.0938  0.0908
  168SOL     OW 1095   1.584   1.685   1.800 -0.3903  0.0629 -0.2820
  168SOL    HW1 1096   1.625   1.724   1.877 -0.8893  0.4779 -0.2156
  168SOL    HW2 1097   1.595   1.591   1.812  0.0992  0.1498 -0.0230
  169SOL     OW 1098   7.185   1.995   0.664 -0.4200 -0.0155 -0.1139
  169SOL    HW1 1099   7.186   2.027   0.574 -1.0991 -1.6664 -0.7628
  169SOL    HW2 1100   7.093   1.972   0.681 -0.1056 -0.8810  0.5411
  170SOL     OW 1101   1.371   0.880   3.507 -0.7586 -0.0254 -0.2865
  170SOL    HW1 1102   1.360   0.791   3.475  1.5155  0.5814 -3.1481
  170SOL    HW2 1103   1.461   0.883   3.539 -2.0182  0.2538  3.7810
  171SOL     OW 1104   0.037   1.304   3.245 -0.1965  0.2809  0.1800
  171SOL    HW1 1105   0.100   1.374   3.227 -0.4252  0.8758  1.5805
  171SOL    HW2 1106   0.092   1.227   3.262  0.0728  0.2899 -0.5813
  172SOL     OW 1107   1.220   0.484   2.556 -0.1654 -0.0439 -0.3455
  172SOL    HW1 1108   1.302   0.533   2.548  1.1961 -2.0335  0.4285
  172SOL    HW2 1109   1.217   0.429   2.478 -0.6062 -0.1749 -0.2375
  173SOL     OW 1110   1.349   5.257   1.102 -0.4734 -0.4366 -0.0321
  173SOL    HW1 1111   1.397   5.175   1.109 -0.8133 -0.6732 -0.4242
  173SOL    HW2 1112   1.264   5.239   1.144 -0.7669 -0.4643 -0.6288
  174SOL     OW 1113   1.511   4.101   0.849 -0.3568  0.1298 -0.2459
  174SOL    HW1 1114   1.458   4.112   0.928 -0.4952  0.0109 -0.3219
  174SOL    HW2 1115   1.448   4.100   0.778 -0.3431 -0.9978 -0.2556
  175SOL     OW 1116   0.918   1.881   1.410  0.3049 -0.0641 -0.5618
  175SOL    HW1 1117   0.983   1.914   1.473  0.4141 -1.4134  0.0681
  175SOL    HW2 1118   0.885   1.801   1.449 -0.3369 -0.4319 -1.7949
  176SOL     OW 1119   6.772   1.318   1.591  0.5406  0.5532  0.3010
  176SOL    HW1 1120   6.738   1.388   1.646  3.8264  1.6672  1.0886
  176SOL    HW2 1121   6.862   1.342   1.572  0.7697 -1.7631 -2.3632
  177SOL     OW 1122   0.622   2.320   0.370 -0.1393  0.4500  0.3272
  177SOL    HW1 1123   0.597   2.230   0.346 -2.2682  0.9655  0.4187
  177SOL    HW2 1124   0.622   2.367   0.287 -0.8373  0.7531  0.4938
  178SOL     OW 1125   2.229   1.236   2.061  0.4070 -0.0862  0.3942
  178SOL    HW1 1126   2.143   1.201   2.039  0.0836  0.5630  0.5929
  178SOL    HW2 1127   2.256   1.186   2.138  1.4917 -2.2764 -1.2967
  179SOL     OW 1128   0.760   4.923   1.937 -0.2981 -0.3087 -0.5172
  179SOL    HW1 1129   0.823   4.877   1.882 -0.0326 -2.2966  1.3178
  179SOL    HW2 1130   0.721   4.854   1.991  0.1255  1.5968  2.4177
  180SOL     OW 1131   1.160   0.847   2.204 -0.0300 -0.1149  0.0489
  180SOL    HW1 1132   1.122   0.760   2.192  1.9314 -1.1335  0.8488
  180SOL    HW2 1133   1.138   0.893   2.123 -2.6530 -0.6762  0.3259
  181SOL     OW 1134   0.767   4.313   1.281  0.0174 -0.1093  0.1210
  181SOL    HW1 1135   0.819   4.242   1.242 -0.8534 -0.9030  0.3540
  181SOL    HW2 1136   0.738   4.277   1.365 -1.5881 -0.0094 -0.3688
  182SOL     OW 1137   6.872   0.860   2.704  0.1497  0.0289 -0.0877
  182SOL    HW1 1138   6.887   0.766   2.691 -0.3439 -0.1022  0.2560
  182SOL    HW2 1139   6.934   0.902   2.645 -0.4792 -0.5274 -1.1874
  183SOL     OW 1140   2.465   4.657   1.029  0.7083  0.0555 -0.4002
  183SOL    HW1 1141   2.486   4.684   0.939  0.0540 -0.4299 -0.7107
  183SOL    HW2 1142   2.532   4.698   1.083  2.4615 -1.4619 -1.3417
  184SOL     OW 1143   0.142   0.461   2.940 -0.7251 -0.3943  0.0758
  184SOL    HW1 1144   0.189   0.508   2.870  0.0074  3.1361  2.6312
  184SOL    HW2 1145   0.065   0.425   2.897  0.6251 -0.0301 -2.8799
  185SOL     OW 1146   0.469   0.768   0.242  0.3552 -0.4103 -0.1954
  185SOL    HW1 1147   0.508   0.848   0.207 -1.6421  1.5665  1.7808
  185SOL    HW2 1148   0.535   0.735   0.303  1.1209 -0.2192 -0.8856
  186SOL     OW 1149   6.573   5.218   1.630 -0.0728  0.6632 -0.2920
  186SOL    HW1 1150   6.610   5.168   1.557 -1.7699  0.2051 -0.8809
  186SOL    HW2 1151   6.575   5.158   1.704  2.1040  1.2849  0.2249
  187SOL     OW 1152   2.983   0.263   3.437 -0.6936 -0.3757  0.9070
  187SOL    HW1 1153   3.022   0.334   3.385  2.9721 -0.1857  3.5476
  187SOL    HW2 1154   2.914   0.305   3.487 -0.7347  0.5967  0.0594
  188SOL     OW 1155   0.521   0.279   2.360  0.7268 -0.3102  0.4947
  188SOL    HW1 1156   0.490   0.363   2.394  0.0602 -1.1168  1.9598
  188SOL    HW2 1157   0.574   0.242   2.430 -0.4720 -1.9166  0.6217
  189SOL     OW 1158   1.466   3.044   2.105  0.0793  0.2624 -0.6627
  189SOL    HW1 1159   1.391   2.998   2.142  0.8732 -0.1352  0.5245
  189SOL    HW2 1160   1.498   2.986   2.036  0.9764 -0.9704  0.7220
  190SOL     OW 1161   2.294   0.263   1.288  0.2252 -0.1495  0.1681
  190SOL    HW1 1162   2.227   0.327   1.313 -1.8111 -1.7463 -0.9440
  190SOL    HW2 1163   2.343   0.305   1.217  0.3264  0.9645  0.8747
  191SOL     OW 1164   1.950   3.873   2.872  0.0531  0.3879 -0.2449
  191SOL    HW1 1165   1.941   3.843   2.963 -0.2363  1.4253  0.0884
  191SOL    HW2 1166   1.949   3.793   2.820 -0.9498 -0.1665  0.5856
  192SOL     OW 1167   0.469   0.096   1.444 -0.7356 -0.3521 -0.7470
  192SOL    HW1 1168   0.396   0.156   1.430 -0.3181  0.1574 -0.7730
  192SOL    HW2 1169   0.527   0.111   1.369 -0.6857 -0.8749 -0.8167
  193SOL     OW 1170   5.942   5.329   0.139 -0.0298 -0.0190 -0.1700
  193SOL    HW1 1171   5.867   5.366   0.092 -0.2696  0.2775  0.4216
  193SOL    HW2 1172   5.999   5.404   0.157 -0.3923  0.0412  0.8091
  194SOL     OW 1173   0.710   3.053   0.870 -0.3324 -0.5207 -0.4293
  194SOL    HW1 1174   0.718   2.972   0.921  2.4967 -1.1844 -1.7340
  194SOL    HW2 1175   0.688   3.120   0.935 -0.8940 -1.9921  0.9667
  195SOL     OW 1176   0.618   1.169   1.283  0.5310 -0.4698  0.4383
  195SOL    HW1 1177   0.610   1.198   1.374  0.4247 -4.4730  1.8870
  195SOL    HW2 1178   0.713   1.158   1.270  0.5126 -0.3688  0.2072
  196SOL     OW 1179   0.266   1.852   1.849 -0.1834  0.4476  0.4936
  196SOL    HW1 1180   0.295   1.762   1.836  2.6654  1.3816 -0.5850
  196SOL    HW2 1181   0.287   1.896   1.766  0.7221  2.5741  1.7630
  197SOL     OW 1182   2.045   1.232   0.389 -0.4602  0.1602  0.2516
  197SOL    HW1 1183   1.961   1.278   0.400 -0.8757 -1.1163  3.3763
  197SOL    HW2 1184   2.111   1.300   0.402 -0.8729  1.3225 -2.8911
  198SOL     OW 1185   1.059   2.030   1.596 -0.6695  0.2894  0.0088
  198SOL    HW1 1186   1.061   2.039   1.691  3.5849  0.5237  0.0782
  198SOL    HW2 1187   1.014   2.109   1.565 -0.5067  1.1144  1.7745
  199SOL     OW 1188   0.596   1.687   0.310 -0.1166  0.5510  0.0285
  199SOL    HW1 1189   0.580   1.687   0.215  2.3588  1.6176 -0.4568
  199SOL    HW2 1190   0.554   1.607   0.341 -3.7458  1.6778 -1.3916
  200SOL     OW 1191   0.551   1.579   3.270 -0.4410  0.2430  0.1378
  200SOL    HW1 1192   0.485   1.607   3.206 -0.1627  1.9465  0.5611
  200SOL    HW2 1193   0.616   1.533   3.218 -0.7044  0.7597 -0.6671
  201SOL     OW 1194   1.606   0.638   3.459  0.0665 -0.3347 -0.6922
  201SOL    HW1 1195   1.513   0.632   3.480  0.4342  0.2065  1.3013
  201SOL    HW2 1196   1.648   0.579   3.521  1.2277  1.1903  0.0395
  202SOL     OW 1197   0.234   5.006   2.018 -0.1601 -0.1229 -0.7492
  202SOL    HW1 1198   0.178   5.058   2.075  0.8605  1.3290 -1.0144
  202SOL    HW2 1199   0.319   5.050   2.020  1.5394 -3.1340  0.9181
  203SOL     OW 1200   0.142   5.370   1.791 -0.1376  0.3867 -0.1721
  203SOL    HW1 1201   0.200   5.368   1.867 -0.4953 -0.0551  0.0957
  203SOL    HW2 1202   0.085   5.294   1.803 -0.6499  0.7124 -0.5236
  204SOL     OW 1203   0.226   0.719   0.053 -0.0928  0.0793  0.3162
  204SOL    HW1 1204   0.296   0.694   0.114  0.1432 -0.8041 -0.2851
  204SOL    HW2 1205   0.231   0.814   0.047  1.3877  0.0013 -0.0754
  205SOL     OW 1206   0.484   1.424   0.380  0.3527  0.0042  0.0238
  205SOL    HW1 1207   0.412   1.423   0.318  0.8902 -1.3033 -0.6175
  205SOL    HW2 1208   0.501   1.332   0.400  3.4410  0.0175 -1.8147
  206SOL     OW 1209   0.049   1.372   0.980  0.0477  0.6264  0.7447
  206SOL    HW1 1210   0.064   1.460   1.014 -0.2085  0.0002  2.6304
  206SOL    HW2 1211   0.105   1.316   1.034  0.1020 -0.3804 -0.3272
  207SOL     OW 1212   1.669   0.317   0.868 -0.4613 -0.4911 -0.2194
  207SOL    HW1 1213   1.699   0.362   0.947 -1.6596 -0.4248  0.2150
  207SOL    HW2 1214   1.629   0.236   0.899  0.8628 -1.4681 -0.9321
  208SOL     OW 1215   2.776   0.353   2.861 -0.6343  0.0315  0.3304
  208SOL    HW1 1216   2.690   0.341   2.901 -0.4877  0.8058  0.9130
  208SOL    HW2 1217   2.816   0.423   2.912 -0.6340  1.4316 -1.5118
  209SOL     OW 1218   2.634   2.390   2.306  0.0824 -0.2331  0.3681
  209SOL    HW1 1219   2.651   2.391   2.212  0.8727 -1.4061  0.4778
  209SOL    HW2 1220   2.595   2.475   2.324  1.4640  0.6685 -0.7394
  210SOL     OW 1221   6.928   1.354   1.198  0.1738 -0.0487  0.0132
  210SOL    HW1 1222   6.881   1.437   1.186  0.8422  0.5012  1.0616
  210SOL    HW2 1223   6.862   1.293   1.230 -0.6724 -0.3739 -2.1738
  211SOL     OW 1224   2.579   5.306   1.134  0.3967 -0.7174  0.6255
  211SOL    HW1 1225   2.497   5.350   1.155 -0.2893 -0.8116 -1.6106
  211SOL    HW2 1226   2.553   5.226   1.089  1.6978  0.0559 -1.6437
  212SOL     OW 1227   1.932   1.231   2.769  0.1144  0.2605  0.7138
  212SOL    HW1 1228   2.000   1.163   2.774  0.4917  0.6020  0.3124
  212SOL    HW2 1229   1.981   1.312   2.754 -0.4275  0.4062 -0.3510
  213SOL     OW 1230   1.459   4.714   0.463 -0.3193  0.6565  0.1761
  213SOL    HW1 1231   1.530   4.761   0.506  0.5516  0.0232 -0.5178
  213SOL    HW2 1232   1.455   4.752   0.375  0.9131 -0.9956 -0.6614
  214SOL     OW 1233   1.358   0.728   1.956  0.2655  0.2779 -0.1851
  214SOL    HW1 1234   1.398   0.706   1.872  2.3759 -1.2541  1.1282
  214SOL    HW2 1235   1.363   0.823   1.961  2.1774  0.2444 -0.8366
  215SOL     OW 1236   0.947   0.982   1.095 -0.4519  0.0317  0.2096
  215SOL    HW1 1237   0.991   1.054   1.051 -0.9648  0.3483  0.2094
  215SOL    HW2 1238   0.883   0.950   1.031  0.1135 -0.7620  0.0144
  216SOL     OW 1239   6.889   4.060   1.232 -0.2295 -0.3691 -0.2864
  216SOL    HW1 1240   6.959   4.013   1.277  0.0863  0.2875 -0.0754
  216SOL    HW2 1241   6.934   4.118   1.172 -0.6022 -0.0934 -0.3035
  217SOL     OW 1242   0.371   2.139   2.706 -0.3162 -0.6846  0.4348
  217SOL    HW1 1243   0.337   2.173   2.789  0.1497 -1.7719  1.0959
  217SOL    HW2 1244   0.467   2.142   2.716 -0.1717  1.3516 -0.9913
  218SOL     OW 1245   6.074   4.694   2.736  0.1839  0.1564 -0.4325
  218SOL    HW1 1246   6.046   4.615   2.783 -0.7354  0.2443 -0.8244
  218SOL    HW2 1247   5.995   4.746   2.726  0.9874  1.8032  1.0267
  219SOL     OW 1248   2.462   1.718   3.177  0.5835 -0.3130 -0.2675
  219SOL    HW1 1249   2.498   1.667   3.105 -2.6875  1.0192 -3.0796
  219SOL    HW2 1250   2.400   1.660   3.220 -0.1263 -0.0298 -0.8824
  220SOL     OW 1251   1.660   2.320   1.710 -0.7937 -0.4998  0.2157
  220SOL    HW1 1252   1.748   2.286   1.728 -0.2059  0.5386 -0.5538
  220SOL    HW2 1253   1.605   2.242   1.701  0.6006 -1.3252 -1.9776
  221SOL     OW 1254   6.414   0.896   3.003 -0.0247 -0.3747 -0.2929
  221SOL    HW1 1255   6.461   0.885   3.085  0.4901  4.2940  0.2864
  221SOL    HW2 1256   6.483   0.914   2.938 -0.6645  1.1786 -0.5763
  222SOL     OW 1257   4.033   0.493   2.783 -0.1677 -0.1609  0.1942
  222SOL    HW1 1258   4.015   0.516   2.692  0.9522  1.1876  0.2805
  222SOL    HW2 1259   3.982   0.556   2.834  0.2148 -0.0711  0.4710
  223SOL     OW 1260   1.266   1.677   2.787 -0.4048 -0.0231 -0.2692
  223SOL    HW1 1261   1.353   1.643   2.766 -0.6156 -0.6179 -0.1991
  223SOL    HW2 1262   1.270   1.697   2.881 -1.4038 -3.4439  0.6279
  224SOL     OW 1263   0.810   0.725   2.984 -0.4577 -0.2226 -0.0275
  224SOL    HW1 1264   0.779   0.799   3.037  0.5680 -0.0809  0.4005
  224SOL    HW2 1265   0.901   0.712   3.012  0.7345  0.9660 -2.9538
  225SOL     OW 1266   7.088   0.338   3.187 -0.0934 -0.2824  0.1681
  225SOL    HW1 1267   7.133   0.287   3.119 -1.9643 -0.1257 -1.2827
  225SOL    HW2 1268   6.995   0.334   3.162 -0.7913  0.1760  2.4950
  226SOL     OW 1269   0.481   0.599   1.308  0.0748  0.4349  0.6204
  226SOL    HW1 1270   0.557   0.623   1.255 -1.1339  1.6224 -0.6275
  226SOL    HW2 1271   0.478   0.665   1.377 -0.0835  0.6502  0.4075
  227SOL     OW 1272   0.971   0.063   3.500 -1.1737  0.0124  0.5580
  227SOL    HW1 1273   1.012   0.148   3.515 -1.2242  0.4444 -1.4622
  227SOL    HW2 1274   0.935   0.038   3.585 -1.0608  1.9556  1.2224
  228SOL     OW 1275   3.464   1.994   0.900 -0.5635  0.0592  0.4055
  228SOL    HW1 1276   3.451   2.087   0.922 -0.4580  0.0871  0.3489
  228SOL    HW2 1277   3.456   1.991   0.805  1.2843  0.3100  0.2188
  229SOL     OW 1278   5.942   0.774   2.083  0.3866 -0.2089 -0.1114
  229SOL    HW1 1279   6.034   0.747   2.089  0.5941  0.6396  0.6582
  229SOL    HW2 1280   5.942   0.847   2.022  0.0175 -1.0296 -1.1284
  230SOL     OW 1281   0.117   0.181   0.139  0.4659  0.0895 -0.5715
  230SOL    HW1 1282   0.128   0.254   0.201  0.9085 -1.4450  1.2408
  230SOL    HW2 1283   0.054   0.123   0.182 -0.9878  0.0120 -2.6256
  231SOL     OW 1284   5.868   4.051   1.809 -0.6268  0.1221 -0.4689
  231SOL    HW1 1285   5.879   4.021   1.719 -0.3537  2.0334 -1.1138
  231SOL    HW2 1286   5.774   4.040   1.826 -0.6349 -0.5086 -0.8735
  232SOL     OW 1287   2.466   2.091   2.832  0.0634  0.5797 -0.0781
  232SOL    HW1 1288   2.476   2.050   2.918  0.1437 -0.0214 -0.3686
  232SOL    HW2 1289   2.545   2.066   2.784 -0.7481 -0.5208 -0.9031
  233SOL     OW 1290   7.289   0.840   3.058 -0.3751  0.8533  0.0383
  233SOL    HW1 1291   7.365   0.792   3.092 -1.3073 -0.6181  0.1685
  233SOL    HW2 1292   7.326   0.904   2.997  0.9123 -0.6648 -0.8613
  234SOL     OW 1293   1.537   0.302   2.824 -0.3388 -0.7423  0.0093
  234SOL    HW1 1294   1.613   0.273   2.774 -0.2806  1.8715 -1.6261
  234SOL    HW2 1295   1.573   0.350   2.898 -0.2725  1.5765 -1.4376
  235SOL     OW 1296   7.444   2.591   0.022  0.6764  0.1368 -0.2455
  235SOL    HW1 1297   7.418   2.574   0.112  3.5112  3.3044  1.3679
  235SOL    HW2 1298   7.461   2.504  -0.015 -2.6674 -1.4229  1.3993
  236SOL     OW 1299   1.338   2.854   3.243  0.5348  0.6976 -0.1362
  236SOL    HW1 1300   1.412   2.855   3.303  0.1726 -3.0396  0.6151
  236SOL    HW2 1301   1.265   2.890   3.293  0.2746 -2.2153  1.8095
  237SOL     OW 1302   2.154   1.525   2.387  0.0297 -0.2040  0.1954
  237SOL    HW1 1303   2.182   1.608   2.348  0.9693 -1.0114 -0.9162
  237SOL    HW2 1304   2.235   1.482   2.415 -0.3907 -0.9742  0.2709
  238SOL     OW 1305   2.083   0.773   0.370 -0.1885  0.5842  0.0439
  238SOL    HW1 1306   2.170   0.737   0.388 -1.2683 -1.8853  0.8593
  238SOL    HW2 1307   2.095   0.829   0.294  1.7659 -1.3991 -1.2442
  239SOL     OW 1308   6.586   0.222   3.358  0.8771  0.0580 -0.3636
  239SOL    HW1 1309   6.523   0.189   3.294  2.5677 -0.8026 -1.6524
  239SOL    HW2 1310   6.628   0.143   3.393  0.2479  0.5333  1.5753
  240SOL     OW 1311   0.048   2.002   1.873  0.3939  0.4710  0.6211
  240SOL    HW1 1312   0.068   2.048   1.954 -0.4979  0.6902  0.7348
  240SOL    HW2 1313   0.116   1.935   1.865  0.5354  0.5040  1.5069
  241SOL     OW 1314   0.423   1.338   0.891 -0.0221 -0.6209  0.0317
  241SOL    HW1 1315   0.401   1.362   0.801 -2.2836 -0.1784  0.6575
  241SOL    HW2 1316   0.517   1.357   0.898 -0.4891  2.7753 -1.1946
  242SOL     OW 1317   0.869   1.322   1.800 -0.0342  0.5133  0.0653
  242SOL    HW1 1318   0.945   1.308   1.857  0.3776 -0.7383 -0.7503
  242SOL    HW2 1319   0.903   1.372   1.726 -0.0333  0.0962 -0.2194
  243SOL     OW 1320   7.229   0.295   0.949  0.1824  0.9053 -0.8667
  243SOL    HW1 1321   7.283   0.294   0.870  0.1878 -0.8579 -0.8829
  243SOL    HW2 1322   7.293   0.293   1.021  0.1633  1.1918 -0.8417
  244SOL     OW 1323   1.211   1.245   2.707  0.1408  0.0978 -0.4472
  244SOL    HW1 1324   1.278   1.287   2.653  1.6168 -0.4172  0.8920
  244SOL    HW2 1325   1.210   1.154   2.677  2.3057 -0.6733  1.4685
  245SOL     OW 1326   2.323   0.889   1.983  0.0655 -0.6814 -0.5779
  245SOL    HW1 1327   2.324   0.951   2.056 -1.7911 -3.2150  1.7972
  245SOL    HW2 1328   2.412   0.853   1.981  1.4613  2.4169 -2.5705
  246SOL     OW 1329   1.528   3.032   0.899  0.0985 -0.2236 -0.1979
  246SOL    HW1 1330   1.433   3.046   0.901  0.3158  1.4201  0.1103
  246SOL    HW2 1331   1.563   3.111   0.859  1.4415 -0.0601  1.2002
  247SOL     OW 1332   1.683   2.646   2.136 -0.1291  0.0753  0.2175
  247SOL    HW1 1333   1.759   2.696   2.165 -2.0716  2.4241  1.6944
  247SOL    HW2 1334   1.647   2.696   2.063  0.1527 -1.4680 -1.0349
  248SOL     OW 1335   7.354   3.129   2.853  0.0496 -0.2411 -0.4437
  248SOL    HW1 1336   7.275   3.130   2.798 -0.4205 -0.6493  0.2085
  248SOL    HW2 1337   7.375   3.036   2.864 -0.2513 -0.1986  0.6023
  249SOL     OW 1338   0.962   0.168   2.106 -0.5795  0.1925  0.3275
  249SOL    HW1 1339   0.922   0.228   2.043 -0.0577  1.2925  0.9906
  249SOL    HW2 1340   0.888   0.131   2.155 -0.8666  1.6346  1.0470
  250SOL     OW 1341   3.340   0.796   2.787  0.4538  0.3711 -0.5700
  250SOL    HW1 1342   3.261   0.796   2.733 -0.5244 -0.4458  0.7907
  250SOL    HW2 1343   3.374   0.885   2.780 -0.9422  0.9203 -0.6967
  251SOL     OW 1344   1.208   0.277   3.297 -0.5108 -0.0766  0.3239
  251SOL    HW1 1345   1.116   0.300   3.306  0.0993  2.1607  1.4585
  251SOL    HW2 1346   1.242   0.275   3.386  0.5820 -0.6694 -0.0817
  252SOL     OW 1347   0.437   5.241   3.010  0.4868 -0.3962 -0.2583
  252SOL    HW1 1348   0.440   5.194   3.094 -1.6518 -0.2272 -0.0471
  252SOL    HW2 1349   0.345   5.263   2.998  1.2070  2.6653 -0.9712
  253SOL     OW 1350   1.873   0.397   1.567 -0.5283 -0.0914 -0.5158
  253SOL    HW1 1351   1.850   0.413   1.658 -0.2971 -0.6701 -0.3535
  253SOL    HW2 1352   1.818   0.323   1.540 -0.1320 -0.3407 -0.6509
  254SOL     OW 1353   2.802   3.953   1.738 -0.2431 -0.1782 -0.3842
  254SOL    HW1 1354   2.799   4.009   1.660  2.8505  0.5908 -0.1200
  254SOL    HW2 1355   2.848   3.874   1.709  0.2912 -0.1969  0.4621
  255SOL     OW 1356   0.816   1.611   3.457 -0.3381  0.4211 -0.1595
  255SOL    HW1 1357   0.880   1.642   3.520  1.7193 -0.7423 -1.5714
  255SOL    HW2 1358   0.772   1.538   3.501  0.8051 -0.1340  0.0950
  256SOL     OW 1359   7.013   2.615   2.695  0.5188 -0.1878 -0.3315
  256SOL    HW1 1360   7.055   2.612   2.781  3.3975  1.3003 -1.5455
  256SOL    HW2 1361   7.036   2.531   2.654  0.0015 -0.4738 -0.0516
  257SOL     OW 1362   2.396   4.986   1.181 -0.0409 -0.2815  0.0188
  257SOL    HW1 1363   2.385   5.027   1.095 -1.7942 -1.7362 -0.5097
  257SOL    HW2 1364   2.475   4.933   1.172  0.2805  0.2576 -0.4007
  258SOL     OW 1365   0.975   3.196   2.200 -0.6362 -0.5359 -0.0190
  258SOL    HW1 1366   1.058   3.237   2.174 -0.5507  0.1546  1.2502
  258SOL    HW2 1367   0.971   3.115   2.148  0.4361 -0.1788 -0.6915
  259SOL     OW 1368   1.856   0.518   2.301 -0.5143  0.5910  0.1397
  259SOL    HW1 1369   1.762   0.526   2.288 -0.1616  2.5520 -1.7887
  259SOL    HW2 1370   1.885   0.456   2.235 -0.2358  1.3882 -0.4966
  260SOL     OW 1371   0.940   0.403   1.202 -0.3125  0.0537  0.3061
  260SOL    HW1 1372   0.993   0.478   1.229  1.3811  0.3403 -3.2613
  260SOL    HW2 1373   0.949   0.340   1.275  0.7396  2.0685  2.0276
  261SOL     OW 1374   1.139   2.271   1.862  0.1813 -0.2126  0.3813
  261SOL    HW1 1375   1.235   2.268   1.869  0.3138 -0.8743 -1.2988
  261SOL    HW2 1376   1.122   2.346   1.805 -0.3135 -0.0130  0.7905
  262SOL     OW 1377   1.747   0.181   2.637  0.1471  0.0247 -0.3755
  262SOL    HW1 1378   1.779   0.105   2.589  0.1771  0.5972 -1.2811
  262SOL    HW2 1379   1.813   0.197   2.704  0.4365 -0.3856 -0.5588
  263SOL     OW 1380   1.002   1.599   2.718  0.3179  0.3090 -0.6478
  263SOL    HW1 1381   0.984   1.552   2.800  0.9105 -0.0462 -0.7154
  263SOL    HW2 1382   1.091   1.631   2.728  0.9089 -0.9167 -1.7038
  264SOL     OW 1383   0.659   5.188   0.151 -0.3892 -0.3477 -0.3091
  264SOL    HW1 1384   0.685   5.161   0.063  0.8632  0.9074 -0.3510
  264SOL    HW2 1385   0.634   5.107   0.194  1.7207 -1.3921 -0.9236
  265SOL     OW 1386   1.904   1.263   2.063 -0.0547 -0.2015  0.6359
  265SOL    HW1 1387   1.951   1.340   2.032  2.5940 -1.4178  1.3008
  265SOL    HW2 1388   1.892   1.278   2.156 -1.2880  0.2050  0.4300
  266SOL     OW 1389   0.622   1.960   0.873  0.0590 -0.0489  0.1302
  266SOL    HW1 1390   0.628   2.015   0.951  2.1610 -1.4163  1.0334
  266SOL    HW2 1391   0.713   1.933   0.856 -0.4109 -0.2185 -2.5018
  267SOL     OW 1392   7.335   1.700   2.346 -0.3542  0.1296 -0.4064
  267SOL    HW1 1393   7.358   1.685   2.438 -1.2998  1.4579  0.0760
  267SOL    HW2 1394   7.243   1.724   2.348 -0.4048  0.1158 -1.7302
  268SOL     OW 1395   1.904   0.321   2.100  0.2095 -0.1143 -0.2507
  268SOL    HW1 1396   1.852   0.240   2.095 -2.3609  1.4553 -0.5880
  268SOL    HW2 1397   1.931   0.337   2.010 -1.0574  0.4636 -0.5423
  269SOL     OW 1398   2.045   3.685   1.615  0.2919  0.5108  0.0277
  269SOL    HW1 1399   1.972   3.666   1.673  0.8084  0.7594  0.7734
  269SOL    HW2 1400   2.070   3.775   1.636  0.0789  0.8283 -1.0343
  270SOL     OW 1401   1.422   3.712   2.883  0.0427  0.1898 -0.0439
  270SOL    HW1 1402   1.343   3.723   2.937  0.4922  0.2432  0.6149
  270SOL    HW2 1403   1.434   3.797   2.840 -0.9183 -0.1735 -1.0715
  271SOL     OW 1404   0.228   3.122   1.246  0.0751  0.3988  0.0745
  271SOL    HW1 1405   0.173   3.088   1.316  0.2025 -0.2047 -0.1114
  271SOL    HW2 1406   0.183   3.099   1.166  1.0002 -0.8783 -0.1139
  272SOL     OW 1407   0.514   2.488   1.767 -0.3275 -0.3799 -0.1699
  272SOL    HW1 1408   0.484   2.440   1.844 -0.4945  0.4141  0.2588
  272SOL    HW2 1409   0.440   2.541   1.740  0.3265  0.7871  0.2605
  273SOL     OW 1410   1.402   0.897   1.139 -0.5575 -0.1837 -0.2274
  273SOL    HW1 1411   1.485   0.864   1.105 -0.1284 -2.1773  2.3772
  273SOL    HW2 1412   1.403   0.990   1.119  1.8473 -0.3441 -1.1678
  274SOL     OW 1413   7.077   0.172   2.668 -0.0439 -0.6631  0.0293
  274SOL    HW1 1414   7.072   0.243   2.605 -1.5549 -0.9603 -0.2145
  274SOL    HW2 1415   7.087   0.093   2.614 -0.2281 -0.8112  0.2122
  275SOL     OW 1416   0.488   0.928   2.343 -0.2515 -0.0143  0.4009
  275SOL    HW1 1417   0.515   0.970   2.424 -1.8532  1.6223  0.1471
  275SOL    HW2 1418   0.550   0.856   2.331  3.7436  3.1596  0.0326
  276SOL     OW 1419   2.213   4.312   3.300 -0.5018  0.1669  0.0778
  276SOL    HW1 1420   2.272   4.367   3.248  0.1139  2.1511  2.7088
  276SOL    HW2 1421   2.217   4.348   3.388 -3.6527 -1.3036  0.9626
  277SOL     OW 1422   1.176   3.334   2.449 -0.5204  0.1121  0.0018
  277SOL    HW1 1423   1.194   3.270   2.518  1.2757 -0.7699 -1.2232
  277SOL    HW2 1424   1.208   3.416   2.484  0.2559 -0.3026  0.2835
  278SOL     OW 1425   0.661   2.162   2.714  0.4152  0.2445  0.3096
  278SOL    HW1 1426   0.684   2.214   2.637 -2.1889 -0.3958 -1.0114
  278SOL    HW2 1427   0.696   2.075   2.696  0.2107  0.2144  0.0519
  279SOL     OW 1428   6.622   4.038   1.424  0.0546 -0.0061  0.5018
  279SOL    HW1 1429   6.660   4.101   1.363 -0.9659  1.6597  1.5146
  279SOL    HW2 1430   6.698   3.997   1.466  0.7521 -0.6794 -1.3364
  280SOL     OW 1431   1.018   1.982   2.838 -0.1730 -0.3036  0.1811
  280SOL    HW1 1432   1.052   2.066   2.868 -2.9053  0.7389  0.6543
  280SOL    HW2 1433   1.068   1.962   2.759 -1.9887  3.7711 -2.2823
  281SOL     OW 1434   6.646   0.153   1.476 -0.6138 -0.2235 -0.5434
  281SOL    HW1 1435   6.706   0.224   1.454  0.9685 -0.1086  3.3774
  281SOL    HW2 1436   6.658   0.089   1.405  1.8589  1.1355 -1.4812
  282SOL     OW 1437   0.701   0.211   0.724  0.2360 -0.2302  0.0051
  282SOL    HW1 1438   0.698   0.203   0.629 -0.4346 -0.5149  0.0428
  282SOL    HW2 1439   0.671   0.300   0.742 -1.0548 -0.6545  0.0142
  283SOL     OW 1440   6.612   4.739   3.405 -0.1364  0.2628 -0.7271
  283SOL    HW1 1441   6.622   4.661   3.350  1.2407 -0.1005 -0.0124
  283SOL    HW2 1442   6.539   4.787   3.367  1.7560  0.8910 -3.9506
  284SOL     OW 1443   1.228   1.844   1.133  0.2814 -0.3491  0.0704
  284SOL    HW1 1444   1.263   1.841   1.044  1.6326  1.2520  0.5164
  284SOL    HW2 1445   1.304   1.858   1.189 -0.4948 -1.7295  1.5471
  285SOL     OW 1446   0.816   3.387   2.292 -0.2942 -0.2111 -0.3759
  285SOL    HW1 1447   0.870   3.323   2.247 -0.0665 -0.4470  0.2278
  285SOL    HW2 1448   0.726   3.354   2.284 -0.3229  0.0437 -1.1453
  286SOL     OW 1449   1.199   2.782   2.021  0.4001 -0.2882  0.3156
  286SOL    HW1 1450   1.274   2.746   1.974  0.1532  1.3775 -1.4771
  286SOL    HW2 1451   1.209   2.750   2.110  1.5595 -2.6049 -0.5741
  287SOL     OW 1452   1.292   0.301   0.390  0.4508  0.2699 -0.4277
  287SOL    HW1 1453   1.298   0.387   0.348 -0.6528  1.4560  1.6742
  287SOL    HW2 1454   1.336   0.241   0.330  1.0914  2.2712 -2.0406
  288SOL     OW 1455   6.258   1.317   2.086 -0.7596  0.4474 -0.5261
  288SOL    HW1 1456   6.193   1.344   2.150 -1.2380 -0.1824 -0.7337
  288SOL    HW2 1457   6.302   1.242   2.126 -1.1221 -0.0063 -0.9542
  289SOL     OW 1458   1.880   4.553   2.205  0.3308  0.1195 -0.1666
  289SOL    HW1 1459   1.953   4.596   2.161  1.6393 -0.4526  1.3698
  289SOL    HW2 1460   1.843   4.620   2.262 -0.2217  0.3386 -0.7662
  290SOL     OW 1461   2.764   0.073   2.229  0.5066 -0.0700 -0.2843
  290SOL    HW1 1462   2.849   0.116   2.238 -0.2011  1.5161 -0.9536
  290SOL    HW2 1463   2.761   0.044   2.138  0.8062 -1.2223  0.0534
  291SOL     OW 1464   1.186   0.031   2.648 -0.7728  0.0114  0.0380
  291SOL    HW1 1465   1.280   0.043   2.632 -0.8260 -0.4590 -0.6834
  291SOL    HW2 1466   1.154  -0.013   2.569 -1.5335 -0.1512  0.4303
  292SOL     OW 1467   0.619   0.201   1.233  0.5240 -0.0550  0.4633
  292SOL    HW1 1468   0.674   0.211   1.311  0.4579  0.9720  0.3990
  292SOL    HW2 1469   0.681   0.194   1.160  0.6049  1.9453  0.2956
  293SOL     OW 1470   1.469   0.256   2.239 -0.3035  0.2098  0.0540
  293SOL    HW1 1471   1.386   0.241   2.285 -0.5826  0.8750 -0.2249
  293SOL    HW2 1472   1.444   0.303   2.160  0.3318  0.3165 -0.0851
  294SOL     OW 1473   2.959   1.619   2.689  0.1530  0.0390  0.0351
  294SOL    HW1 1474   2.966   1.663   2.605  0.0113  0.6677  0.3479
  294SOL    HW2 1475   2.968   1.526   2.668  0.1931  0.1943 -0.6611
  295SOL     OW 1476   7.356   4.857   3.454 -0.0081  0.1941  0.3124
  295SOL    HW1 1477   7.336   4.898   3.370 -0.1841 -0.3751  0.0728
  295SOL    HW2 1478   7.272   4.849   3.498 -0.0901 -0.5939  0.0379
  296SOL     OW 1479   3.236   0.717   2.114 -0.4010  0.1850  0.5493
  296SOL    HW1 1480   3.243   0.653   2.043 -0.7962 -0.5958  1.1952
  296SOL    HW2 1481   3.273   0.673   2.190 -1.4528  0.3929  1.2088
  297SOL     OW 1482   2.423   0.315   2.455  0.2122  0.2822 -0.0047
  297SOL    HW1 1483   2.483   0.384   2.484  0.3055 -0.3581  1.4214
  297SOL    HW2 1484   2.481   0.243   2.430  0.1082 -0.6300  2.1218
  298SOL     OW 1485   1.316   0.645   3.414 -0.3810  0.2114  0.3290
  298SOL    HW1 1486   1.265   0.566   3.434 -0.6067  0.1588 -0.4286
  298SOL    HW2 1487   1.348   0.631   3.325  2.5825 -0.6269  1.4056
  299SOL     OW 1488   1.216   2.835   2.985 -0.3815 -0.6942 -0.3171
  299SOL    HW1 1489   1.246   2.839   3.076  0.1817 -0.4037 -0.5099
  299SOL    HW2 1490   1.121   2.834   2.992 -0.3702  0.5163  0.2430
  300SOL     OW 1491   0.251   2.045   0.205 -0.0078  0.0298  0.0916
  300SOL    HW1 1492   0.303   1.995   0.268 -0.5683  0.7423  1.1531
  300SOL    HW2 1493   0.176   1.988   0.187 -0.5037  0.3417  1.0849
  301SOL     OW 1494   0.769   3.128   2.981  0.3515 -0.7017  0.8213
  301SOL    HW1 1495   0.773   3.057   3.045 -0.1574  0.0141  1.6822
  301SOL    HW2 1496   0.675   3.146   2.972  0.4296 -0.6565  0.0138
  302SOL     OW 1497   1.171   3.601   1.547  0.1625  0.1713 -0.3609
  302SOL    HW1 1498   1.262   3.631   1.547  0.9252 -1.8996 -1.8994
  302SOL    HW2 1499   1.168   3.534   1.478 -3.0187  1.5158 -1.7089
  303SOL     OW 1500   1.598   0.158   0.048 -0.0641  0.3539  0.0986
  303SOL    HW1 1501   1.652   0.236   0.060 -0.1621  0.3335  0.7172
  303SOL    HW2 1502   1.613   0.132  -0.043  0.9930  0.3346  0.2598
  304SOL     OW 1503   1.997   2.631   1.522 -0.4509 -0.1582  0.1152
  304SOL    HW1 1504   2.075   2.620   1.576 -0.7106  0.7492  0.6829
  304SOL    HW2 1505   2.030   2.638   1.433  0.1186  0.1957  0.3525
  305SOL     OW 1506   0.885   3.211   2.532 -0.3289  0.8738  0.0772
  305SOL    HW1 1507   0.968   3.240   2.494  0.5429 -0.1065  1.1894
  305SOL    HW2 1508   0.862   3.133   2.482 -0.2715  0.7947  0.1749
  306SOL     OW 1509   1.785   4.961   1.192 -0.0073  0.2021  0.3037
  306SOL    HW1 1510   1.784   4.893   1.260  1.0325  0.0929  0.2354
  306SOL    HW2 1511   1.874   4.996   1.196 -0.0595  0.4678 -0.7399
  307SOL     OW 1512   0.380   0.827   2.099 -1.0026  0.3063  0.1452
  307SOL    HW1 1513   0.425   0.881   2.165 -1.2419 -0.6684  1.1475
  307SOL    HW2 1514   0.334   0.761   2.151 -1.1684 -0.5137 -1.0174
  308SOL     OW 1515   0.163   1.073   3.274 -0.7671  0.0532 -0.2931
  308SOL    HW1 1516   0.237   1.035   3.226  0.0349  0.7830  0.3340
  308SOL    HW2 1517   0.180   1.051   3.366 -0.6579  1.3151 -0.0019
  309SOL     OW 1518   0.750   4.373   3.496  0.4348  0.1354  0.3800
  309SOL    HW1 1519   0.731   4.463   3.470 -0.4666 -0.4433 -1.0629
  309SOL    HW2 1520   0.666   4.338   3.523  0.4191 -0.8014 -0.8034
  310SOL     OW 1521   2.879   1.144   1.546  0.5775  0.2024  0.9208
  310SOL    HW1 1522   2.904   1.234   1.521  0.0785  0.4985  1.4677
  310SOL    HW2 1523   2.788   1.137   1.518  1.5332 -1.3574 -2.4034
  311SOL     OW 1524   1.231   2.996   2.327  0.3555  0.6649 -0.0124
  311SOL    HW1 1525   1.210   3.061   2.394  1.8125  0.7640  0.3734
  311SOL    HW2 1526   1.157   3.000   2.266  1.5378  4.5480 -1.4675
  312SOL     OW 1527   2.791   1.390   0.822 -0.5699 -0.0636  0.1650
  312SOL    HW1 1528   2.719   1.435   0.868  0.0441  0.7603  0.3488
  312SOL    HW2 1529   2.824   1.456   0.760  0.1468 -0.3713  0.2145
  313SOL     OW 1530   0.356   4.679   2.278  0.4726  0.1799 -0.4046
  313SOL    HW1 1531   0.427   4.697   2.341 -0.2454 -0.1220  0.5171
  313SOL    HW2 1532   0.384   4.598   2.234  1.9761  1.4918 -1.9942
  314SOL     OW 1533   1.216   2.343   3.249  0.3233 -0.0340  0.9339
  314SOL    HW1 1534   1.121   2.335   3.251  0.3138 -0.0471  0.5664
  314SOL    HW2 1535   1.247   2.254   3.232  0.3682  0.0888  0.3485
  315SOL     OW 1536   3.761   0.877   0.287 -0.2769 -0.2297 -0.0091
  315SOL    HW1 1537   3.727   0.961   0.318  1.3200  0.6510 -0.5625
  315SOL    HW2 1538   3.777   0.827   0.367 -1.2903 -0.0423  0.3226
  316SOL     OW 1539   7.344   1.661   2.071 -0.1735  0.3510 -0.5423
  316SOL    HW1 1540   7.303   1.738   2.031 -0.0567  1.0424  0.5937
  316SOL    HW2 1541   7.338   1.679   2.165 -0.3196 -1.1347 -0.2539
  317SOL     OW 1542   0.579   2.589   3.097 -0.4099 -0.2076 -0.0499
  317SOL    HW1 1543   0.510   2.526   3.080 -0.4420 -0.4615  0.9540
  317SOL    HW2 1544   0.599   2.579   3.190  1.2976 -0.4676 -0.3953
  318SOL     OW 1545   1.516   4.761   2.191 -0.1725 -0.6169 -0.0807
  318SOL    HW1 1546   1.470   4.768   2.274  1.5991  2.0970  0.7853
  318SOL    HW2 1547   1.590   4.704   2.209  0.3541  0.1762  0.2966
  319SOL     OW 1548   7.131   4.470   1.942 -0.3152 -0.2034 -0.0635
  319SOL    HW1 1549   7.145   4.417   2.020  0.2830  0.7576  0.4962
  319SOL    HW2 1550   7.200   4.442   1.881 -0.0718 -0.1524  0.1879
  320SOL     OW 1551   0.743   4.087   1.883  0.0345  0.5747  0.4096
  320SOL    HW1 1552   0.711   4.021   1.821 -2.8353  0.4572  1.8253
  320SOL    HW2 1553   0.679   4.158   1.876  1.8149  2.2614  0.5403
  321SOL     OW 1554   1.785   3.643   2.603  0.2412 -0.5191 -0.2016
  321SOL    HW1 1555   1.751   3.726   2.570  0.4162 -0.1194  0.5802
  321SOL    HW2 1556   1.757   3.641   2.695  1.4903 -0.6205  0.2041
  322SOL     OW 1557   0.819   4.719   3.000  0.8592 -0.0648  0.3930
  322SOL    HW1 1558   0.912   4.694   2.995  1.1445  0.7444  1.2766
  322SOL    HW2 1559   0.811   4.760   3.086 -0.2158  0.3121  0.1164
  323SOL     OW 1560   1.632   1.181   2.303  0.2228  0.1486  0.5324
  323SOL    HW1 1561   1.689   1.157   2.376 -1.1282  0.7104  1.8293
  323SOL    HW2 1562   1.600   1.098   2.269  1.2490 -0.1389  0.2266
  324SOL     OW 1563   1.824   2.450   2.421 -0.5435  0.0720  0.1075
  324SOL    HW1 1564   1.824   2.428   2.514 -0.0011  0.4081  0.1866
  324SOL    HW2 1565   1.749   2.509   2.410  0.0783  0.9719  0.5628
  325SOL     OW 1566   1.387   1.931   2.521  0.0275  0.2300 -0.1888
  325SOL    HW1 1567   1.360   2.020   2.542 -1.6260 -0.3582  0.3288
  325SOL    HW2 1568   1.349   1.913   2.435 -0.1543 -0.1734 -0.0302
  326SOL     OW 1569   0.455   4.400   2.190 -0.3296 -0.4561  0.5876
  326SOL    HW1 1570   0.550   4.398   2.189 -0.3318 -1.9528 -0.8522
  326SOL    HW2 1571   0.428   4.310   2.206 -1.5128 -0.0747  0.9009
  327SOL     OW 1572   1.600   0.847   0.954 -0.1172  0.3115 -0.1660
  327SOL    HW1 1573   1.634   0.771   1.002 -1.1996 -0.5807 -0.7605
  327SOL    HW2 1574   1.625   0.830   0.863 -0.3014  0.7141 -0.2917
  328SOL     OW 1575   0.746   3.867   0.841  0.0585  0.6175  0.0088
  328SOL    HW1 1576   0.669   3.811   0.851 -0.9276  1.7960 -0.5622
  328SOL    HW2 1577   0.744   3.924   0.918  0.3729  0.6552 -0.0088
  329SOL     OW 1578   6.653   2.847   1.017 -0.1033  0.8006 -0.2638
  329SOL    HW1 1579   6.675   2.772   0.962  0.7330  0.5080  0.4633
  329SOL    HW2 1580   6.557   2.850   1.014 -0.1366 -0.0951 -0.5583
  330SOL     OW 1581   0.115   0.313   1.005  0.4982 -0.2876 -0.2091
  330SOL    HW1 1582   0.111   0.291   0.912 -0.1205  0.1830 -0.3016
  330SOL    HW2 1583   0.080   0.236   1.050 -2.5372  0.7344 -0.5741
  331SOL     OW 1584   0.941   5.115   2.371 -0.1396  0.3617 -0.1687
  331SOL    HW1 1585   0.894   5.109   2.288  0.4030  1.5419 -0.5858
  331SOL    HW2 1586   0.887   5.173   2.425  0.1662  0.6544 -0.1739
  332SOL     OW 1587   1.299   1.741   1.842 -0.1905  0.1076 -0.0227
  332SOL    HW1 1588   1.384   1.728   1.801 -0.0178  1.4926 -0.1496
  332SOL    HW2 1589   1.318   1.789   1.922 -0.7384 -0.7137  0.6173
  333SOL     OW 1590   1.004   2.691   0.848 -0.1165 -0.2923 -0.5569
  333SOL    HW1 1591   1.005   2.773   0.799 -2.7038 -0.0943 -0.3930
  333SOL    HW2 1592   0.998   2.623   0.780 -0.7287 -0.1760 -0.6265
  334SOL     OW 1593   1.327   3.158   1.236 -0.6557 -0.4598  0.1639
  334SOL    HW1 1594   1.310   3.243   1.194 -1.1735 -1.0034 -0.7754
  334SOL    HW2 1595   1.263   3.099   1.196  0.8926 -1.7129 -0.5870
  335SOL     OW 1596   1.793   5.148   1.766 -0.1289  0.0918  1.0956
  335SOL    HW1 1597   1.804   5.146   1.670 -0.0250 -2.0320  1.0873
  335SOL    HW2 1598   1.794   5.240   1.789  0.4833  0.6273 -0.8932
  336SOL     OW 1599   0.465   0.476   0.883  0.1083  0.2961 -0.3710
  336SOL    HW1 1600   0.414   0.476   0.964 -0.1249  1.8472 -0.4854
  336SOL    HW2 1601   0.556   0.482   0.913  0.0994 -0.2840 -0.2125
  337SOL     OW 1602   7.179   0.616   2.919 -0.4481  0.0522  0.0700
  337SOL    HW1 1603   7.188   0.695   2.972  1.7232  0.2331 -0.4527
  337SOL    HW2 1604   7.095   0.578   2.946  0.1992  0.5075  3.1212
  338SOL     OW 1605   2.123   0.616   0.714  0.6424 -0.2355  0.1515
  338SOL    HW1 1606   2.066   0.564   0.658  1.2635 -2.0642  1.1452
  338SOL    HW2 1607   2.063   0.663   0.772  0.0739 -0.0408 -0.5781
  339SOL     OW 1608   0.542   0.978   1.677  0.1011 -0.7047 -0.5387
  339SOL    HW1 1609   0.528   1.012   1.765  1.4696 -0.9353 -0.2040
  339SOL    HW2 1610   0.595   1.044   1.633 -0.9288 -0.3913 -1.3488
  340SOL     OW 1611   7.372   2.354   2.339 -0.0870 -0.2856 -0.6243
  340SOL    HW1 1612   7.401   2.263   2.330 -1.4529 -0.6264 -2.0204
  340SOL    HW2 1613   7.376   2.390   2.251  0.3700  1.0087 -0.1068
  341SOL     OW 1614   3.163   0.814   1.591 -0.0822 -0.4464  0.1399
  341SOL    HW1 1615   3.168   0.720   1.574  3.0676 -0.7414  1.8497
  341SOL    HW2 1616   3.141   0.820   1.684  0.2119  0.4796  0.1611
  342SOL     OW 1617   1.062   0.520   1.469  0.2666  0.0244 -0.0084
  342SOL    HW1 1618   1.128   0.588   1.455  1.2010 -1.1191 -1.5505
  342SOL    HW2 1619   1.108   0.438   1.449 -1.3268 -0.9033 -0.0505
  343SOL     OW 1620   0.394   2.433   2.460  0.0543 -0.7243 -0.6142
  343SOL    HW1 1621   0.432   2.448   2.547  0.3787  2.5650 -1.1934
  343SOL    HW2 1622   0.435   2.352   2.429  1.4956 -0.8567  1.4425
  344SOL     OW 1623   0.649   0.590   1.589 -0.1261  0.3758  0.5958
  344SOL    HW1 1624   0.602   0.654   1.536 -3.6267 -0.7782  2.0252
  344SOL    HW2 1625   0.633   0.616   1.679  0.1265 -1.3136  1.1769
  345SOL     OW 1626   0.857   4.435   1.880  0.5835 -0.6447  0.0717
  345SOL    HW1 1627   0.904   4.363   1.922 -0.1788 -1.7851 -1.0024
  345SOL    HW2 1628   0.885   4.433   1.789 -0.5382 -0.4904 -0.2863
  346SOL     OW 1629   3.542   0.174   2.551 -0.0724  0.5434 -0.2149
  346SOL    HW1 1630   3.558   0.177   2.457  1.0144  0.7178 -0.0316
  346SOL    HW2 1631   3.563   0.084   2.576  0.6773  0.7818  0.0323
  347SOL     OW 1632   0.217   2.317   0.137  0.2760 -0.1463  0.1145
  347SOL    HW1 1633   0.269   2.340   0.060  1.5402  2.5040  1.6082
  347SOL    HW2 1634   0.237   2.225   0.153 -0.3075 -0.8760 -2.8427
  348SOL     OW 1635   7.319   0.667   2.504 -0.3205  0.1659  0.3027
  348SOL    HW1 1636   7.225   0.671   2.520 -0.3245 -0.9689  0.6729
  348SOL    HW2 1637   7.339   0.573   2.505  0.5869  0.3252 -1.1442
  349SOL     OW 1638   2.214   0.420  -0.015 -0.1578  0.4222 -0.0668
  349SOL    HW1 1639   2.227   0.338  -0.064  0.1246  1.3133 -1.5264
  349SOL    HW2 1640   2.135   0.404   0.037  0.0862 -0.8982 -0.0586
  350SOL     OW 1641   2.194   2.989   2.504 -0.0935 -0.4380  0.0133
  350SOL    HW1 1642   2.269   3.006   2.447  0.2821 -0.3824  0.5076
  350SOL    HW2 1643   2.156   3.076   2.520 -0.1889 -0.4518 -0.1420
  351SOL     OW 1644   2.704   0.705   3.450 -0.0911 -0.0396 -0.8446
  351SOL    HW1 1645   2.634   0.640   3.458 -0.8367  0.5329 -2.3090
  351SOL    HW2 1646   2.669   0.771   3.390  0.6914  1.6679  0.4835
  352SOL     OW 1647   0.866   1.291   0.333  0.0314 -0.0782  0.8348
  352SOL    HW1 1648   0.858   1.211   0.282  0.6383  0.7358 -0.6036
  352SOL    HW2 1649   0.959   1.294   0.359  0.7828  1.6021 -1.7122
  353SOL     OW 1650   0.981   2.946   2.079 -0.3488  0.1920 -0.3481
  353SOL    HW1 1651   1.053   2.909   2.028  0.2968 -0.9296  1.2804
  353SOL    HW2 1652   0.906   2.890   2.058  0.3296 -1.3634  1.1680
  354SOL     OW 1653   1.510   0.075   1.926  0.3376  0.1287 -0.0250
  354SOL    HW1 1654   1.424   0.108   1.899 -0.3533 -0.4980  1.3041
  354SOL    HW2 1655   1.509  -0.017   1.900 -0.1192 -0.3379  1.5341
  355SOL     OW 1656   7.446   4.969   0.526  0.8902  0.3911  0.1100
  355SOL    HW1 1657   7.386   4.896   0.543  1.3052  0.0082 -0.0671
  355SOL    HW2 1658   7.431   5.028   0.600  0.8646 -0.0785  0.4937
  356SOL     OW 1659   0.807   4.974   2.897  0.2033 -0.3319 -0.4822
  356SOL    HW1 1660   0.821   4.984   2.991 -1.6720  0.6124 -0.2630
  356SOL    HW2 1661   0.801   4.880   2.884 -0.2150 -0.4474  0.4542
  357SOL     OW 1662   1.602   0.913   2.260  0.0838 -0.2996  0.7062
  357SOL    HW1 1663   1.675   0.865   2.300  1.3700  1.8488  1.1426
  357SOL    HW2 1664   1.620   0.911   2.166  0.4335 -0.2121  0.7698
  358SOL     OW 1665   1.999   2.378   1.950  0.1493 -0.7747  0.3201
  358SOL    HW1 1666   2.001   2.462   1.904  0.5948 -0.6757  0.5123
  358SOL    HW2 1667   1.936   2.390   2.021  0.2808 -0.5725  0.4030
  359SOL     OW 1668   1.055   4.988   1.218 -0.6306 -0.0751 -0.5834
  359SOL    HW1 1669   0.993   4.936   1.269 -1.5454  0.4236 -1.1566
  359SOL    HW2 1670   1.027   5.079   1.233 -0.4038  0.1199 -1.3192
  360SOL     OW 1671   2.244   1.808   2.341 -0.5139  0.0988  0.2072
  360SOL    HW1 1672   2.180   1.863   2.387 -0.8484 -0.1456  0.0414
  360SOL    HW2 1673   2.323   1.861   2.338 -0.9031  0.6760 -0.1652
  361SOL     OW 1674   1.398   2.216   1.081  0.4383  0.2368 -0.4627
  361SOL    HW1 1675   1.401   2.133   1.128 -0.2635 -0.1543 -1.0807
  361SOL    HW2 1676   1.405   2.283   1.149  0.5100 -0.3204  0.0862
  362SOL     OW 1677   0.689   2.491   0.171 -0.0285  0.3151 -0.3796
  362SOL    HW1 1678   0.658   2.581   0.168 -1.6722 -0.0602  2.1682
  362SOL    HW2 1679   0.683   2.460   0.080 -0.7261  2.3336 -1.0720
  363SOL     OW 1680   1.812   0.867   2.624 -0.5598 -0.0070  0.1849
  363SOL    HW1 1681   1.855   0.797   2.673 -1.1400 -1.0593 -0.7702
  363SOL    HW2 1682   1.733   0.886   2.674  0.2227  0.8835  1.1319
  364SOL     OW 1683   1.219   1.105   0.124 -0.7624  0.6482 -0.0355
  364SOL    HW1 1684   1.265   1.031   0.086 -0.9450  0.8642 -0.6966
  364SOL    HW2 1685   1.188   1.073   0.209 -0.7140  0.0183 -0.2494
  365SOL     OW 1686   0.342   0.457   0.633 -0.1420  0.1089 -0.2306
  365SOL    HW1 1687   0.398   0.462   0.711  0.5593 -1.2158 -0.6264
  365SOL    HW2 1688   0.266   0.511   0.656  0.1390 -0.0800  1.2920
  366SOL     OW 1689   3.505   3.548   3.112  0.6655  0.3641 -0.0424
  366SOL    HW1 1690   3.437   3.509   3.057  0.2840  0.0634  0.6379
  366SOL    HW2 1691   3.503   3.641   3.090  0.1104  0.3364 -0.1057
  367SOL     OW 1692   1.075   1.603   1.778  0.0067  0.3960 -0.0108
  367SOL    HW1 1693   1.026   1.661   1.837 -0.3616 -0.1910  0.2716
  367SOL    HW2 1694   1.166   1.615   1.802  0.0230  1.5954 -0.6189
  368SOL     OW 1695   0.506   1.914   3.044  0.3107 -0.6200 -0.9364
  368SOL    HW1 1696   0.582   1.860   3.024 -0.2657 -1.4748 -0.8625
  368SOL    HW2 1697   0.447   1.902   2.970  1.1286  1.7798 -2.1005
  369SOL     OW 1698   1.886   0.055   0.031  0.1050 -0.7388 -0.4215
  369SOL    HW1 1699   1.907  -0.030  -0.009 -1.1804 -1.8869  1.1734
  369SOL    HW2 1700   1.791   0.057   0.034  0.0459 -1.2718  3.3959
  370SOL     OW 1701   7.203   0.775   3.341 -0.2032  0.0677 -0.1201
  370SOL    HW1 1702   7.230   0.684   3.332 -0.1959 -0.0938  1.2178
  370SOL    HW2 1703   7.228   0.816   3.259  0.6841 -0.9225 -0.3744
  371SOL     OW 1704   7.355   4.453   2.677  0.1729 -0.0544 -0.7215
  371SOL    HW1 1705   7.400   4.450   2.762 -0.5989 -2.2066 -0.3312
  371SOL    HW2 1706   7.418   4.416   2.615 -0.5016 -1.8666 -0.3974
  372SOL     OW 1707   0.883   4.851   2.394 -0.4084  0.3735  0.1323
  372SOL    HW1 1708   0.903   4.944   2.383 -0.6237  0.3877 -0.1424
  372SOL    HW2 1709   0.915   4.810   2.314  1.0863 -0.0200  0.9021
  373SOL     OW 1710   0.689   5.116   3.396  0.1157  0.5023 -0.1529
  373SOL    HW1 1711   0.716   5.027   3.373 -1.6969 -0.4334  1.0565
  373SOL    HW2 1712   0.751   5.173   3.351  1.1279 -1.3608 -1.2233
  374SOL     OW 1713   0.688   0.794   3.422  0.0638 -0.0105 -0.0549
  374SOL    HW1 1714   0.637   0.828   3.348 -0.5351 -0.5610  0.1014
  374SOL    HW2 1715   0.626   0.794   3.496  0.5576  0.2048  0.3627
  375SOL     OW 1716   1.177   2.991   2.686  0.3186  0.1750  0.2030
  375SOL    HW1 1717   1.270   3.007   2.698  0.5510  0.4673 -1.6873
  375SOL    HW2 1718   1.134   3.063   2.732  1.1508  1.7048 -1.2884
  376SOL     OW 1719   7.274   4.774   0.588  0.4462  0.3012 -0.1433
  376SOL    HW1 1720   7.265   4.806   0.678 -0.0148  2.2592 -0.8541
  376SOL    HW2 1721   7.216   4.697   0.584  0.7941 -0.0673  1.3212
  377SOL     OW 1722   5.786   1.446   0.854 -0.1308  0.1256 -0.3839
  377SOL    HW1 1723   5.860   1.451   0.793  1.6747 -2.3358  1.3886
  377SOL    HW2 1724   5.788   1.530   0.901  0.8075  0.5457 -1.1349
  378SOL     OW 1725   0.988   1.644   0.308  0.2414  0.3631  0.5623
  378SOL    HW1 1726   0.908   1.686   0.340 -0.5454 -1.3780  0.9716
  378SOL    HW2 1727   1.022   1.595   0.383  0.3561 -0.8640 -0.2623
  379SOL     OW 1728   3.841   0.504   1.901  0.1552  0.2355  0.0580
  379SOL    HW1 1729   3.777   0.434   1.890 -0.1259  0.7878 -2.4453
  379SOL    HW2 1730   3.839   0.524   1.995 -3.2501  0.1297  0.1444
  380SOL     OW 1731   0.538   5.212   1.338  0.6790 -0.2222 -0.7257
  380SOL    HW1 1732   0.463   5.236   1.284 -1.2289 -1.2717  1.2963
  380SOL    HW2 1733   0.536   5.275   1.411  0.5569 -1.4172  0.3440
  381SOL     OW 1734   1.797   3.030   0.323  0.1990  0.3404 -0.3659
  381SOL    HW1 1735   1.797   2.939   0.294 -1.8232  0.8741 -2.3352
  381SOL    HW2 1736   1.808   3.025   0.418 -1.3373 -2.0725 -0.2215
  382SOL     OW 1737   1.955   3.299   1.544 -0.0287 -0.1877 -0.3776
  382SOL    HW1 1738   1.879   3.317   1.489  0.4573 -0.5086 -1.1780
  382SOL    HW2 1739   1.925   3.234   1.607 -0.4313 -0.2826 -0.6643
  383SOL     OW 1740   0.399   3.168   3.359 -0.1653 -0.0560  0.6843
  383SOL    HW1 1741   0.424   3.177   3.451 -0.9323 -0.2191  0.9094
  383SOL    HW2 1742   0.328   3.230   3.346 -0.5473 -0.5442  0.3865
  384SOL     OW 1743   7.145   1.419   1.920  0.4651 -0.6805  0.5787
  384SOL    HW1 1744   7.069   1.361   1.926  0.6029 -1.0302 -0.8062
  384SOL    HW2 1745   7.215   1.370   1.963 -0.0240 -0.4308  1.7078
  385SOL     OW 1746   1.092   0.672   0.877  0.1676 -0.1136 -0.0754
  385SOL    HW1 1747   1.121   0.663   0.968 -0.6939  1.4841  0.3851
  385SOL    HW2 1748   1.167   0.711   0.832  0.3138 -0.1617  0.1238
  386SOL     OW 1749   1.386   2.611   2.198 -0.2669  0.5365  0.5002
  386SOL    HW1 1750   1.388   2.570   2.111  0.4322 -0.8930  1.1511
  386SOL    HW2 1751   1.478   2.629   2.218 -0.2808 -0.4173  1.5002
  387SOL     OW 1752   2.139   1.805   3.229 -0.1561 -0.1398  0.0133
  387SOL    HW1 1753   2.150   1.742   3.300  2.3033  1.1270  0.8901
  387SOL    HW2 1754   2.163   1.889   3.268  1.4440  0.5889 -2.3206
  388SOL     OW 1755   6.191   0.082   2.692 -0.2359 -0.1026 -0.0669
  388SOL    HW1 1756   6.159   0.171   2.704  0.4520  0.1110  0.2633
  388SOL    HW2 1757   6.189   0.068   2.597  2.3136  1.3123 -0.4057
  389SOL     OW 1758   2.560   5.197   3.188  1.0416  0.0712 -0.1582
  389SOL    HW1 1759   2.549   5.102   3.195  1.6255  0.1003  1.5903
  389SOL    HW2 1760   2.510   5.233   3.261 -0.2443  1.2446 -1.5326
  390SOL     OW 1761   2.197   0.923   0.861  0.2698 -0.5468  0.5170
  390SOL    HW1 1762   2.254   0.867   0.915 -0.5824 -2.5972 -0.5977
  390SOL    HW2 1763   2.121   0.868   0.842  0.1983  0.3439 -2.1372
  391SOL     OW 1764   0.240   0.982   0.055 -0.4141  0.3820  0.1028
  391SOL    HW1 1765   0.170   1.012   0.113 -1.1297  1.5520 -1.2868
  391SOL    HW2 1766   0.302   1.055   0.052 -1.0684  0.9284 -1.6061
  392SOL     OW 1767   0.360   2.012   1.648  0.1566  0.3896  0.6580
  392SOL    HW1 1768   0.434   2.071   1.656  0.4630  0.0471  0.3861
  392SOL    HW2 1769   0.370   1.972   1.562 -0.8041  0.9528  0.2723
  393SOL     OW 1770   0.737   0.437   1.926  0.1796 -0.1769 -0.1985
  393SOL    HW1 1771   0.709   0.348   1.904 -0.5747 -0.5947  2.1857
  393SOL    HW2 1772   0.711   0.448   2.018 -0.8862  2.9659 -0.7868
  394SOL     OW 1773   1.008   0.650   2.622  0.1268  0.4316 -0.4272
  394SOL    HW1 1774   1.080   0.590   2.606  0.3073  0.9039 -1.4567
  394SOL    HW2 1775   0.934   0.593   2.646  0.1355 -0.2640 -1.9354
  395SOL     OW 1776   2.263   5.306   2.848  0.2173 -0.2195  0.2657
  395SOL    HW1 1777   2.283   5.393   2.881 -0.6669  0.0309  0.1557
  395SOL    HW2 1778   2.344   5.257   2.860  1.1138  0.9525 -0.8375
  396SOL     OW 1779   1.448   0.565   0.794  0.2634  0.2997 -0.2234
  396SOL    HW1 1780   1.451   0.582   0.888  0.2535  0.2171 -0.2083
  396SOL    HW2 1781   1.407   0.479   0.786  0.5060  0.1882 -0.2881
  397SOL     OW 1782   1.149   2.172   2.996  0.0039 -0.3467 -0.5182
  397SOL    HW1 1783   1.199   2.232   2.940 -0.9270  0.5598 -0.4003
  397SOL    HW2 1784   1.210   2.149   3.066 -0.3358  2.5046  0.8747
  398SOL     OW 1785   6.651   5.060   1.859 -0.0238  0.4447  0.1306
  398SOL    HW1 1786   6.642   4.967   1.836  0.5266  0.1256  1.1278
  398SOL    HW2 1787   6.715   5.061   1.931  0.3556  1.6497 -0.2012
  399SOL     OW 1788   1.014   0.603   2.190 -0.1186 -0.2213 -0.4156
  399SOL    HW1 1789   1.049   0.572   2.106 -0.1919 -1.6073  0.0458
  399SOL    HW2 1790   0.949   0.537   2.215  0.0279  0.0811  0.8157
  400SOL     OW 1791   2.452   5.000   0.606 -0.0627  0.1496  0.1671
  400SOL    HW1 1792   2.519   5.067   0.598 -0.2105  0.3671  0.7423
  400SOL    HW2 1793   2.375   5.046   0.639 -0.5548 -0.0636 -0.6578
  401SOL     OW 1794   6.204   0.710   1.078 -0.0341 -0.2967  0.4765
  401SOL    HW1 1795   6.168   0.669   0.999 -2.0900  1.4685  0.3951
  401SOL    HW2 1796   6.293   0.735   1.054 -0.0213 -1.3760 -0.6779
  402SOL     OW 1797   1.143   1.611   2.336 -0.2162  0.4299  0.3006
  402SOL    HW1 1798   1.223   1.559   2.341 -0.6672 -0.4091 -0.7143
  402SOL    HW2 1799   1.081   1.564   2.392  0.0029  1.1023  1.1203
  403SOL     OW 1800   0.899   4.128   2.531 -0.3640 -0.2109 -0.0854
  403SOL    HW1 1801   0.850   4.070   2.472  0.1905 -0.6727 -0.1058
  403SOL    HW2 1802   0.959   4.069   2.577 -0.0543  0.2973  0.1696
  404SOL     OW 1803   0.158   2.844   0.218 -0.0804  0.1098  0.3568
  404SOL    HW1 1804   0.111   2.913   0.170 -2.6347 -1.0620  1.0049
  404SOL    HW2 1805   0.117   2.843   0.305  0.4232 -1.6934  0.6075
  405SOL     OW 1806   2.294   3.538   2.521 -0.3186 -0.3412  0.1574
  405SOL    HW1 1807   2.364   3.602   2.505  0.0915 -0.9282 -0.4619
  405SOL    HW2 1808   2.213   3.588   2.511 -0.0492 -0.2406 -1.9190
  406SOL     OW 1809   0.729   4.404   2.165 -0.2332  0.2832 -0.2028
  406SOL    HW1 1810   0.784   4.388   2.089  0.7632 -3.0552  1.0091
  406SOL    HW2 1811   0.789   4.397   2.240 -1.8191 -1.0843  1.0437
  407SOL     OW 1812   2.762   2.938   3.390  0.2090  0.0616  0.1007
  407SOL    HW1 1813   2.738   2.985   3.311  0.3886  0.3914  0.2409
  407SOL    HW2 1814   2.856   2.922   3.382  0.3662  0.7187  0.5690
  408SOL     OW 1815   1.052   1.376   2.011 -0.3260  0.4192 -0.0695
  408SOL    HW1 1816   1.006   1.333   2.084 -1.2633  0.9157 -0.3391
  408SOL    HW2 1817   1.033   1.469   2.024 -0.5980  0.5011 -1.0042
  409SOL     OW 1818   1.967   2.594   0.875  0.5675 -0.1790 -0.0880
  409SOL    HW1 1819   1.887   2.547   0.899 -0.9691  2.2192 -0.2496
  409SOL    HW2 1820   1.975   2.580   0.781 -1.2236  1.7093 -0.5828
  410SOL     OW 1821   5.814   3.177   0.826  0.5308 -0.2671 -0.4694
  410SOL    HW1 1822   5.776   3.129   0.752 -0.9145  0.3900 -0.2060
  410SOL    HW2 1823   5.896   3.212   0.792  1.3763 -2.4691 -0.8072
  411SOL     OW 1824   6.151   2.281  -0.026 -0.2615 -0.0077 -0.2429
  411SOL    HW1 1825   6.227   2.320  -0.069 -0.7663  0.4462 -0.7294
  411SOL    HW2 1826   6.189   2.222   0.040  0.5066  0.4996 -0.2171
  412SOL     OW 1827   6.911   1.834   3.090 -0.1128 -0.3127  0.2529
  412SOL    HW1 1828   6.971   1.908   3.081  1.6500 -1.6976  0.0029
  412SOL    HW2 1829   6.864   1.831   3.007 -0.0847  0.4222  0.2073
  413SOL     OW 1830   2.154   1.739   0.997 -0.0035 -0.1140  0.6290
  413SOL    HW1 1831   2.178   1.826   0.965 -0.3644  0.5446  2.0575
  413SOL    HW2 1832   2.091   1.756   1.067 -1.9282 -1.6376 -0.6355
  414SOL     OW 1833   0.117   3.124   1.651 -0.4661 -0.8021  0.3374
  414SOL    HW1 1834   0.203   3.098   1.685  0.2648  0.8044 -0.2327
  414SOL    HW2 1835   0.060   3.123   1.728  0.2258 -1.1231  0.8592
  415SOL     OW 1836   1.085   3.576   2.952  0.0147  0.2751 -0.2916
  415SOL    HW1 1837   1.073   3.587   2.858  0.0453  0.7200 -0.2456
  415SOL    HW2 1838   1.019   3.512   2.977 -0.8137  1.0558 -0.4132
  416SOL     OW 1839   0.951   1.013   0.667  0.4741 -1.4635  0.1253
  416SOL    HW1 1840   0.952   0.924   0.633  1.1736 -1.7197  0.7743
  416SOL    HW2 1841   0.861   1.044   0.653  0.4989 -1.9003 -1.0270
  417SOL     OW 1842   2.346   2.897   0.571 -0.8447 -0.7161  0.3318
  417SOL    HW1 1843   2.290   2.972   0.590 -1.6094 -1.3185  0.4725
  417SOL    HW2 1844   2.312   2.826   0.626  0.2743 -0.9967  0.6925
  418SOL     OW 1845   0.843   5.300   2.560  0.1647  0.0700  0.4194
  418SOL    HW1 1846   0.768   5.241   2.567 -1.1064  1.7859  2.0511
  418SOL    HW2 1847   0.871   5.314   2.650  1.0505  1.2245 -0.0147
  419SOL     OW 1848   0.648   3.015   2.169 -0.4168 -0.5317 -0.1758
  419SOL    HW1 1849   0.711   3.019   2.241 -1.2629 -0.5660  0.6012
  419SOL    HW2 1850   0.587   2.946   2.196 -1.4170  0.2555 -0.3692
  420SOL     OW 1851   6.410   3.441   1.533  0.1747 -0.1001 -0.5733
  420SOL    HW1 1852   6.346   3.394   1.587 -0.1961 -0.2742 -1.1621
  420SOL    HW2 1853   6.397   3.533   1.556 -0.1918 -0.1471 -0.5856
  421SOL     OW 1854   0.208   2.781   2.072 -0.1415 -0.3659 -0.3421
  421SOL    HW1 1855   0.285   2.789   2.016  0.5710 -2.9904  0.1362
  421SOL    HW2 1856   0.171   2.695   2.050 -2.2914  0.3284  0.2661
  422SOL     OW 1857   6.608   4.077   0.530 -0.6486  0.1127 -0.2608
  422SOL    HW1 1858   6.576   4.002   0.579 -4.3318  1.9557  0.4546
  422SOL    HW2 1859   6.585   4.057   0.439 -2.7978  0.8152  0.0804
  423SOL     OW 1860   6.008   4.148   2.887 -0.3937 -0.3664 -0.2345
  423SOL    HW1 1861   6.040   4.079   2.945 -0.5775 -0.9366 -0.8066
  423SOL    HW2 1862   5.928   4.180   2.930 -0.2689 -0.4514  0.0653
  424SOL     OW 1863   7.289   1.605   1.728 -0.2946  0.0720  0.4021
  424SOL    HW1 1864   7.285   1.675   1.793 -1.9545 -0.0257  0.4633
  424SOL    HW2 1865   7.234   1.535   1.766  0.3599 -0.7829 -0.1949
  425SOL     OW 1866   6.977   3.153   3.138  0.5362 -0.6939 -0.1099
  425SOL    HW1 1867   6.983   3.083   3.073 -0.1426 -0.9386  0.0839
  425SOL    HW2 1868   6.888   3.188   3.127  0.5642 -0.4581  0.4045
  426SOL     OW 1869   1.717   3.307   0.309 -0.0572 -0.1991 -0.3271
  426SOL    HW1 1870   1.729   3.216   0.285 -1.3306 -0.5525  0.2794
  426SOL    HW2 1871   1.743   3.312   0.401 -1.1648 -0.2363 -0.0002
  427SOL     OW 1872   7.208   4.224   0.120 -0.1424  0.1394  0.1862
  427SOL    HW1 1873   7.125   4.202   0.163 -0.1688  3.2873  2.0706
  427SOL    HW2 1874   7.260   4.267   0.188  1.9259  0.7890 -1.6718
  428SOL     OW 1875   2.089   3.320   0.755  0.5628 -0.0613  0.4704
  428SOL    HW1 1876   2.035   3.377   0.699  1.2585 -0.6949 -0.8818
  428SOL    HW2 1877   2.162   3.375   0.781 -0.1726  0.4855  1.4656
  429SOL     OW 1878   1.062   2.917   0.138 -0.2529 -0.4352 -0.0397
  429SOL    HW1 1879   1.075   2.985   0.205  0.3870 -1.2730  0.7254
  429SOL    HW2 1880   1.101   2.839   0.177 -1.8191 -1.4811 -0.5037
  430SOL     OW 1881   6.603   2.936   2.090  0.1512 -0.1300 -0.7883
  430SOL    HW1 1882   6.569   3.018   2.128 -0.4847  0.1725 -1.9470
  430SOL    HW2 1883   6.563   2.867   2.143 -2.5849  0.2048 -2.2198
  431SOL     OW 1884   2.274   4.591   2.428 -0.2579  0.6999 -0.5003
  431SOL    HW1 1885   2.360   4.614   2.394 -0.3292  0.8535 -0.5804
  431SOL    HW2 1886   2.273   4.629   2.516  0.0171  0.0944 -0.2284
  432SOL     OW 1887   2.544   2.349   1.632  0.3922 -0.4384 -0.2285
  432SOL    HW1 1888   2.598   2.427   1.620  1.9877 -1.5260 -0.4000
  432SOL    HW2 1889   2.586   2.282   1.578 -0.6755 -1.5488  0.2644
  433SOL     OW 1890   1.011   1.938   0.470  0.5514 -0.1683 -0.5548
  433SOL    HW1 1891   1.033   1.946   0.563 -0.2001  2.6588 -0.5233
  433SOL    HW2 1892   0.944   1.871   0.466  0.4850 -0.2103  0.9743
  434SOL     OW 1893   0.488   3.095   1.376  0.5377  0.2965  0.0723
  434SOL    HW1 1894   0.412   3.118   1.323  1.0003 -0.0895 -0.7814
  434SOL    HW2 1895   0.495   3.166   1.440 -1.6398 -0.6013  1.4126
  435SOL     OW 1896   1.976   2.103   0.917  0.2808  0.1503 -0.1701
  435SOL    HW1 1897   1.956   2.176   0.976  1.5938  0.7316 -0.4193
  435SOL    HW2 1898   1.891   2.062   0.901 -0.4150  1.3185  0.3757
  436SOL     OW 1899   1.231   2.706   0.204  0.0541 -0.0047 -0.5506
  436SOL    HW1 1900   1.176   2.676   0.277 -0.0731 -1.4801 -1.2090
  436SOL    HW2 1901   1.215   2.642   0.134  2.7131 -0.6035 -0.7123
  437SOL     OW 1902   5.584   1.812   3.054 -0.0854 -0.3976  0.0453
  437SOL    HW1 1903   5.615   1.727   3.023 -2.4101 -0.9648 -0.9473
  437SOL    HW2 1904   5.595   1.870   2.979 -1.0878 -0.5308 -0.2121
  438SOL     OW 1905   1.882   2.908   1.944 -0.1657  0.2260 -0.3398
  438SOL    HW1 1906   1.933   2.877   2.020  1.5721  1.2043 -1.0498
  438SOL    HW2 1907   1.945   2.909   1.872 -1.3030  1.1563 -1.3535
  439SOL     OW 1908   3.202   3.318   0.627 -0.0432  0.6632 -0.4887
  439SOL    HW1 1909   3.163   3.234   0.602  0.8357 -0.3363  1.3139
  439SOL    HW2 1910   3.131   3.382   0.614 -0.6440 -0.2644 -2.1684
  440SOL     OW 1911   0.175   3.482   2.970 -0.1995  0.5545 -0.1702
  440SOL    HW1 1912   0.101   3.516   2.919 -2.1488 -0.4214  1.8764
  440SOL    HW2 1913   0.136   3.438   3.045  2.4461 -0.7856  0.5740
  441SOL     OW 1914   1.291   1.239   2.069  0.0021  0.9036  0.2669
  441SOL    HW1 1915   1.351   1.313   2.071 -1.2248  1.9720 -0.8517
  441SOL    HW2 1916   1.204   1.279   2.071 -0.6874 -0.4825 -0.6801
  442SOL     OW 1917   2.214   2.922   0.206  0.3777  0.0802 -0.0092
  442SOL    HW1 1918   2.194   2.889   0.118 -1.7278 -0.5787  0.6723
  442SOL    HW2 1919   2.236   2.843   0.257 -0.1838  0.2402  0.4903
  443SOL     OW 1920   7.354   1.807   3.132 -0.1054  0.5103 -0.0090
  443SOL    HW1 1921   7.395   1.836   3.213  1.3173 -0.8631 -0.2025
  443SOL    HW2 1922   7.315   1.886   3.095  0.5191  1.4400  1.2625
  444SOL     OW 1923   0.935   4.194   3.426  0.3430  0.5098  0.7258
  444SOL    HW1 1924   0.948   4.180   3.520 -1.2147 -1.0158  0.7799
  444SOL    HW2 1925   0.875   4.268   3.421  0.1968  0.4072  0.9426
  445SOL     OW 1926   0.457   2.807   1.960 -0.5442 -0.1068  0.2759
  445SOL    HW1 1927   0.519   2.738   1.982 -1.0594 -0.6127  0.1769
  445SOL    HW2 1928   0.511   2.879   1.928  0.0049 -0.4441  0.4344
  446SOL     OW 1929   1.843   1.497   1.885  0.8158  0.3060  0.0363
  446SOL    HW1 1930   1.873   1.577   1.927 -0.3500  1.3773 -1.0597
  446SOL    HW2 1931   1.859   1.512   1.791  3.9001 -2.2368 -0.0240
  447SOL     OW 1932   0.191   2.062   3.414  0.3621 -0.0487 -0.2102
  447SOL    HW1 1933   0.208   2.075   3.507  1.2235  0.5186 -0.4312
  447SOL    HW2 1934   0.202   1.968   3.400 -1.5816 -0.4445  0.5872
  448SOL     OW 1935   0.436   4.058   1.527  0.1438 -0.1129  0.0578
  448SOL    HW1 1936   0.442   3.977   1.476  0.5664 -0.5359  0.7742
  448SOL    HW2 1937   0.383   4.035   1.603 -0.7485  0.6011 -0.3274
  449SOL     OW 1938   1.497   1.446   0.757 -0.4681 -0.3308  0.5333
  449SOL    HW1 1939   1.581   1.447   0.804 -0.9055  1.8670  1.3618
  449SOL    HW2 1940   1.519   1.481   0.670 -0.8138  2.4670  1.4666
  450SOL     OW 1941   0.965   2.967   3.125 -0.6068 -0.0225 -0.1728
  450SOL    HW1 1942   1.006   2.988   3.209 -1.7048  0.2486  0.3135
  450SOL    HW2 1943   0.968   3.049   3.075 -0.8438  0.0813 -0.0160
  451SOL     OW 1944   2.688   4.702   3.139  0.5032  0.1186  0.5399
  451SOL    HW1 1945   2.691   4.675   3.231 -3.7419 -0.3007  0.7763
  451SOL    HW2 1946   2.720   4.625   3.091 -1.3174 -1.4281  1.6275
  452SOL     OW 1947   0.814   4.163   0.836 -0.4379  0.2282  0.4086
  452SOL    HW1 1948   0.845   4.073   0.826 -0.4778  0.3976 -1.7168
  452SOL    HW2 1949   0.720   4.158   0.816 -0.1470  0.9418 -1.3005
  453SOL     OW 1950   7.135   2.485   0.448  0.4010 -0.4888 -0.2869
  453SOL    HW1 1951   7.145   2.441   0.533  1.9249 -0.9906 -0.6894
  453SOL    HW2 1952   7.075   2.430   0.399 -1.0620  0.1821  0.6892
  454SOL     OW 1953   2.939   1.246   3.418  0.5681  0.1120 -0.5247
  454SOL    HW1 1954   3.025   1.265   3.456  0.4603  1.1154 -0.7564
  454SOL    HW2 1955   2.882   1.315   3.452 -0.4911 -1.2797  0.6918
  455SOL     OW 1956   1.416   4.366   0.790 -0.1647  0.1484 -0.2341
  455SOL    HW1 1957   1.327   4.338   0.811 -0.1470 -0.4359 -0.9277
  455SOL    HW2 1958   1.411   4.398   0.700 -0.1455  2.2368  0.4503
  456SOL     OW 1959   2.113   3.196   3.246  0.1783  0.0506  0.2905
  456SOL    HW1 1960   2.106   3.290   3.264 -1.5246 -0.1226  0.6928
  456SOL    HW2 1961   2.074   3.154   3.322  0.5669 -0.9847 -0.0660
  457SOL     OW 1962   1.043   0.106   0.410 -0.5350  0.0634 -0.3078
  457SOL    HW1 1963   1.108   0.173   0.391  1.4098 -0.6945  2.8258
  457SOL    HW2 1964   1.015   0.125   0.500 -0.2633 -2.9577  0.5195
  458SOL     OW 1965   1.518   2.933   1.336 -0.1517  0.0341 -0.5685
  458SOL    HW1 1966   1.473   3.016   1.324 -0.4609 -0.1117 -0.4423
  458SOL    HW2 1967   1.447   2.869   1.345  0.0288  0.0549  1.5185
  459SOL     OW 1968   3.546   0.857   0.879 -0.3138  0.2458  0.2543
  459SOL    HW1 1969   3.571   0.792   0.945 -3.4311 -0.3680  0.9878
  459SOL    HW2 1970   3.593   0.830   0.800  2.3000  0.0833  1.7342
  460SOL     OW 1971   1.882   3.118   1.718  0.2080 -0.0505  0.2600
  460SOL    HW1 1972   1.976   3.120   1.737  0.4960  0.3116 -1.0877
  460SOL    HW2 1973   1.843   3.079   1.795  1.4927 -0.3997  0.7611
  461SOL     OW 1974   3.184   4.601   2.287 -0.0814 -0.4762  0.2181
  461SOL    HW1 1975   3.132   4.578   2.210  1.6355 -2.2671 -0.4723
  461SOL    HW2 1976   3.160   4.536   2.353  0.3815 -0.5334  0.3277
  462SOL     OW 1977   6.931   3.937   1.921 -0.0246 -0.0828 -0.1674
  462SOL    HW1 1978   6.934   4.011   1.982  0.0294 -1.7169  1.9200
  462SOL    HW2 1979   6.839   3.909   1.922 -0.3255  0.6936 -1.9646
  463SOL     OW 1980   2.212   1.041   0.501 -0.0265 -0.2767  0.7742
  463SOL    HW1 1981   2.284   1.100   0.477  0.7161 -0.7549  1.7567
  463SOL    HW2 1982   2.133   1.086   0.471  0.6740  0.3048 -0.2414
  464SOL     OW 1983   1.144   4.655   0.955  0.8752 -0.2371 -0.7733
  464SOL    HW1 1984   1.093   4.599   0.896  0.4882 -0.9412  0.2018
  464SOL    HW2 1985   1.084   4.727   0.976  0.4387 -0.8026 -0.0250
  465SOL     OW 1986   3.178   4.356   2.116 -0.0593  0.4650 -0.1165
  465SOL    HW1 1987   3.123   4.278   2.125  1.4684 -0.6831 -0.3530
  465SOL    HW2 1988   3.183   4.372   2.022  1.6492 -0.7015 -0.2647
  466SOL     OW 1989   7.281   0.346   2.016 -0.1053 -0.0790  0.1451
  466SOL    HW1 1990   7.241   0.263   1.989 -0.5622  0.2211 -0.1240
  466SOL    HW2 1991   7.372   0.323   2.036  0.0088 -0.4859 -0.7742
  467SOL     OW 1992   0.046   2.072   0.461 -0.0373  0.3490 -0.5558
  467SOL    HW1 1993  -0.004   2.106   0.535  0.3437 -0.5055  0.1070
  467SOL    HW2 1994   0.038   2.140   0.394 -2.4111  0.1026 -0.6288
  468SOL     OW 1995   6.545   2.574   0.380 -0.7062  0.9180 -0.3390
  468SOL    HW1 1996   6.581   2.618   0.303  4.3076 -1.5623  0.1404
  468SOL    HW2 1997   6.495   2.501   0.345  1.7006 -0.3170 -1.4603
  469SOL     OW 1998   1.772   1.073   1.623 -0.3798  0.2311  0.4794
  469SOL    HW1 1999   1.705   1.099   1.686  0.5307  0.9360  1.1823
  469SOL    HW2 2000   1.854   1.104   1.660  0.3548 -0.6173 -0.3614
  470SOL     OW 2001   1.158   2.514   1.245  0.7330  0.3631  0.2850
  470SOL    HW1 2002   1.249   2.485   1.249  0.6039  0.0340  0.9694
  470SOL    HW2 2003   1.110   2.436   1.216  0.6823  0.5682 -0.1875
  471SOL     OW 2004   0.072   2.265   2.746  0.2797  0.1495  0.5059
  471SOL    HW1 2005   0.112   2.297   2.665 -2.2302  0.6929 -0.6157
  471SOL    HW2 2006   0.019   2.190   2.719 -0.8892  0.5608  1.5690
  472SOL     OW 2007   0.506   3.441   0.411  0.6722 -0.3063  0.2342
  472SOL    HW1 2008   0.514   3.465   0.318  0.4306  0.6213  0.4351
  472SOL    HW2 2009   0.423   3.394   0.417  0.8087 -0.5897 -0.0569
  473SOL     OW 2010   6.659   3.832   1.690  0.3216 -0.2971 -0.4030
  473SOL    HW1 2011   6.729   3.843   1.627  0.6090 -1.5743 -0.3434
  473SOL    HW2 2012   6.658   3.738   1.709 -1.8718 -0.4509 -0.9529
  474SOL     OW 2013   1.587   4.358   2.621 -0.5013 -0.5597  0.1371
  474SOL    HW1 2014   1.492   4.347   2.612 -0.6450  1.4916 -1.7066
  474SOL    HW2 2015   1.599   4.392   2.709 -1.5695 -0.2273  0.1701
  475SOL     OW 2016   1.869   2.459   2.937 -0.4171 -0.2096  0.4623
  475SOL    HW1 2017   1.955   2.493   2.960 -0.8331 -0.5901  2.7773
  475SOL    HW2 2018   1.810   2.492   3.005 -1.7729 -1.3534 -0.0942
  476SOL     OW 2019   7.400   1.756   2.618  0.3425 -0.4938  0.1741
  476SOL    HW1 2020   7.370   1.837   2.661 -1.1852 -1.2448  0.5893
  476SOL    HW2 2021   7.393   1.689   2.687 -1.5822 -1.6128 -1.0155
  477SOL     OW 2022   1.512   2.573   1.525 -0.4331  0.3773  0.3916
  477SOL    HW1 2023   1.581   2.634   1.552  0.3753 -0.3816  0.1170
  477SOL    HW2 2024   1.449   2.626   1.477  0.9777  0.7727 -1.1262
  478SOL     OW 2025   7.384   2.849   2.907  0.3162 -0.9006 -0.5822
  478SOL    HW1 2026   7.381   2.776   2.845 -0.2063 -1.5020  0.1342
  478SOL    HW2 2027   7.477   2.860   2.927  0.3755 -1.5547 -0.4849
  479SOL     OW 2028   1.248   1.567   1.182 -0.0193  0.2477 -0.0865
  479SOL    HW1 2029   1.234   1.541   1.091  0.2105 -0.4832  0.0820
  479SOL    HW2 2030   1.208   1.654   1.188  0.7844  0.7163 -1.1232
  480SOL     OW 2031   0.965   1.867   0.808 -0.8336 -0.0987  0.4222
  480SOL    HW1 2032   0.956   1.962   0.801  0.0713  0.0109  0.6062
  480SOL    HW2 2033   1.051   1.854   0.848 -0.9476 -0.9982  0.3981
  481SOL     OW 2034   1.217   5.117   0.085  0.2838 -0.4557 -0.7196
  481SOL    HW1 2035   1.241   5.175   0.013  0.9495  0.8156  0.4571
  481SOL    HW2 2036   1.200   5.177   0.158 -2.1576 -1.5740 -0.2753
  482SOL     OW 2037   0.122   4.912   0.796 -0.2669  0.1675 -0.1458
  482SOL    HW1 2038   0.186   4.979   0.772 -0.8565  0.1941 -1.7881
  482SOL    HW2 2039   0.170   4.829   0.791 -0.8901 -0.1448 -4.2019
  483SOL     OW 2040   2.416   3.143   0.747  0.2198  0.4502 -0.1947
  483SOL    HW1 2041   2.429   3.233   0.717  0.8195  0.2500 -0.5590
  483SOL    HW2 2042   2.320   3.133   0.751  0.1462  1.1645  0.0636
  484SOL     OW 2043   3.417   2.559   3.085  0.2566  0.0298 -0.5481
  484SOL    HW1 2044   3.462   2.474   3.094  0.6119  0.0991 -1.5428
  484SOL    HW2 2045   3.485   2.624   3.101  0.0716  0.1332 -0.1725
  485SOL     OW 2046   0.997   0.966   1.565  0.4844  0.0065  0.0660
  485SOL    HW1 2047   0.958   0.879   1.568  1.4425 -0.4834 -0.9268
  485SOL    HW2 2048   1.085   0.953   1.601  0.1828  0.8434  1.1536
  486SOL     OW 2049   7.123   3.481   1.916 -0.0485  0.0094  0.1270
  486SOL    HW1 2050   7.084   3.395   1.901  0.0783  0.4136 -3.2755
  486SOL    HW2 2051   7.048   3.542   1.916 -0.0800  0.0370  1.9473
  487SOL     OW 2052   0.617   2.959   0.061 -0.5014 -0.0286 -1.0185
  487SOL    HW1 2053   0.691   2.900   0.081  1.1060  2.1280 -0.2421
  487SOL    HW2 2054   0.560   2.953   0.138  1.4703  2.0095  0.7248
  488SOL     OW 2055   1.640   1.882   1.629 -0.0728  0.3040  0.6561
  488SOL    HW1 2056   1.691   1.936   1.690  0.1236  0.3378  0.4645
  488SOL    HW2 2057   1.601   1.814   1.684  2.6308 -1.6161  0.4491
  489SOL     OW 2058   0.338   0.472   1.113 -0.2318 -0.1902 -0.8130
  489SOL    HW1 2059   0.384   0.527   1.177  0.2729 -1.4594 -0.0498
  489SOL    HW2 2060   0.251   0.460   1.150 -0.0945 -0.5242 -0.5900
  490SOL     OW 2061   2.811   1.637   1.835 -0.1093 -0.5328 -0.1616
  490SOL    HW1 2062   2.754   1.615   1.762 -0.3670 -0.1423 -0.0795
  490SOL    HW2 2063   2.753   1.675   1.901  0.0539 -1.2473  0.4161
  491SOL     OW 2064   0.937   2.135   0.723 -0.2297 -0.8315 -0.2489
  491SOL    HW1 2065   0.859   2.169   0.678 -0.8267 -0.1844  1.2099
  491SOL    HW2 2066   1.003   2.203   0.710 -0.0043 -1.2127 -1.1748
  492SOL     OW 2067   6.313   3.164   3.308  0.4983 -0.3813  0.3261
  492SOL    HW1 2068   6.379   3.188   3.243  2.2093 -0.9015  1.7973
  492SOL    HW2 2069   6.343   3.205   3.389  0.6545 -3.0035  1.7008
  493SOL     OW 2070   2.530   3.171   0.475  0.0869 -0.2225 -0.0375
  493SOL    HW1 2071   2.499   3.116   0.403 -1.4658  0.7897 -0.1710
  493SOL    HW2 2072   2.452   3.190   0.527  1.2675 -1.4423  2.3190
  494SOL     OW 2073   0.091   3.865   3.147  0.2457  0.0163  0.1219
  494SOL    HW1 2074   0.078   3.880   3.053  1.0129 -2.7539 -0.5404
  494SOL    HW2 2075   0.006   3.836   3.178  0.3634 -0.6125 -0.1167
  495SOL     OW 2076   6.911   3.720   2.449 -0.6631 -0.5966 -0.0818
  495SOL    HW1 2077   6.958   3.802   2.466 -1.5277  0.1545 -1.1348
  495SOL    HW2 2078   6.959   3.654   2.498  1.1776  0.2078 -0.6993
  496SOL     OW 2079   0.854   5.395   0.222  0.1282  0.1973 -0.1646
  496SOL    HW1 2080   0.816   5.307   0.231 -0.7416  0.5541 -0.1942
  496SOL    HW2 2081   0.914   5.403   0.296  1.6254 -1.0941 -1.1633
  497SOL     OW 2082   2.181   3.567   0.404  0.4271  0.0752 -0.0313
  497SOL    HW1 2083   2.266   3.524   0.399  1.1936  1.5115  0.3049
  497SOL    HW2 2084   2.126   3.519   0.341  1.4642 -0.8666 -0.2473
  498SOL     OW 2085   7.410   2.635   0.873 -0.0107 -0.6368  0.0119
  498SOL    HW1 2086   7.459   2.574   0.818  0.7644 -0.1606  0.1656
  498SOL    HW2 2087   7.359   2.579   0.931 -3.6841 -1.3430 -3.4322
  499SOL     OW 2088   1.892   2.706   0.207  0.5222  0.2995  0.1857
  499SOL    HW1 2089   1.807   2.664   0.220  1.1908 -1.3559 -0.5373
  499SOL    HW2 2090   1.884   2.750   0.123 -0.1169  1.5087  0.8525
  500SOL     OW 2091   6.700   2.160   0.953 -0.1498  0.8621  0.2359
  500SOL    HW1 2092   6.712   2.084   1.010 -1.7763  0.8867  0.6481
  500SOL    HW2 2093   6.764   2.224   0.984  2.3177 -0.8080 -1.0640
  501SOL     OW 2094   1.283   2.845   1.157 -0.4631  0.4390  0.3794
  501SOL    HW1 2095   1.193   2.857   1.189 -1.3203  0.0262 -1.7103
  501SOL    HW2 2096   1.284   2.891   1.073  1.2094  0.1451  0.2123
  502SOL     OW 2097   1.446   3.834   0.858  1.1692  0.1252 -0.1966
  502SOL    HW1 2098   1.436   3.824   0.953  1.3047  1.0512 -0.0753
  502SOL    HW2 2099   1.476   3.924   0.847  1.6068 -0.1231 -1.0910
  503SOL     OW 2100   0.182   1.609   1.137  0.5540 -0.2074 -0.6097
  503SOL    HW1 2101   0.220   1.541   1.193  1.2352 -0.2142 -1.0643
  503SOL    HW2 2102   0.252   1.630   1.075  0.8712  1.9141  0.3828
  504SOL     OW 2103   6.815   1.748   1.827 -0.5092 -0.4181  0.0770
  504SOL    HW1 2104   6.860   1.743   1.911 -1.6988  2.0767  0.9641
  504SOL    HW2 2105   6.883   1.777   1.765 -0.4368  1.6443  1.0480
  505SOL     OW 2106   7.279   4.894   0.854 -0.5152  0.2056  0.0947
  505SOL    HW1 2107   7.247   4.984   0.857 -0.6313  0.1482  2.4213
  505SOL    HW2 2108   7.374   4.903   0.843 -0.4176  0.6651  1.1810
  506SOL     OW 2109   0.843   3.090   0.381  0.5577 -0.0606  0.1004
  506SOL    HW1 2110   0.787   3.141   0.439 -0.6935  0.6696 -1.6423
  506SOL    HW2 2111   0.863   3.150   0.309  1.4531 -1.1479 -0.5834
  507SOL     OW 2112   0.022   2.026   2.181 -0.3193 -0.3732  0.7015
  507SOL    HW1 2113   0.065   1.988   2.257  0.5147 -0.4720  0.1922
  507SOL    HW2 2114  -0.064   1.984   2.179  0.4389 -1.9779  0.3724
  508SOL     OW 2115   2.103   3.242   2.475  0.1940 -0.1565  0.2777
  508SOL    HW1 2116   2.158   3.306   2.431 -0.1033 -1.1972 -1.7533
  508SOL    HW2 2117   2.030   3.228   2.414  0.3584 -2.5294  0.5365
  509SOL     OW 2118   2.327   4.418   0.898  0.1260  0.4157  0.4604
  509SOL    HW1 2119   2.233   4.414   0.880  0.0534  0.9168  0.6984
  509SOL    HW2 2120   2.339   4.503   0.941  0.7107  0.4196  0.2933
  510SOL     OW 2121   1.173   1.380   1.363 -0.4331 -0.1154 -0.3214
  510SOL    HW1 2122   1.159   1.292   1.328  1.4474 -0.6880  0.2420
  510SOL    HW2 2123   1.211   1.429   1.290 -1.0531  0.1131 -0.4976
  511SOL     OW 2124   7.334   1.206   1.288 -0.1136  0.3951 -0.3225
  511SOL    HW1 2125   7.412   1.161   1.319  0.1969  0.7537 -0.5779
  511SOL    HW2 2126   7.335   1.290   1.334 -1.6350 -0.5274  1.5123
  512SOL     OW 2127   2.437   1.728   1.630 -0.3410  0.3501 -0.1067
  512SOL    HW1 2128   2.458   1.650   1.682 -1.5218  0.1806  0.1628
  512SOL    HW2 2129   2.521   1.765   1.606  0.2356 -0.6748  0.2829
  513SOL     OW 2130   0.400   1.942   2.071 -0.1926  0.1632 -0.1262
  513SOL    HW1 2131   0.331   1.899   2.021  0.2156 -0.7305  0.0391
  513SOL    HW2 2132   0.463   1.973   2.006 -0.1151 -0.1800 -0.2162
  514SOL     OW 2133   0.950   2.748   1.615 -0.0272  0.6347  0.0282
  514SOL    HW1 2134   1.006   2.793   1.678  0.4559  1.8312 -1.2048
  514SOL    HW2 2135   1.007   2.730   1.540 -0.2977 -1.7507  0.2893
  515SOL     OW 2136   0.219   1.767   3.080  0.1408  0.5242 -0.2588
  515SOL    HW1 2137   0.133   1.799   3.107 -1.1930 -2.1638 -0.9255
  515SOL    HW2 2138   0.233   1.806   2.994 -1.1477 -0.1447 -0.8047
  516SOL     OW 2139   2.671   3.000   0.773 -0.1559  0.5275  0.3981
  516SOL    HW1 2140   2.579   3.024   0.759  0.5835  2.2474 -2.0107
  516SOL    HW2 2141   2.714   3.082   0.796  1.3436  0.4505 -1.8819
  517SOL     OW 2142   0.393   2.872   1.069  0.2228  0.4534 -0.1531
  517SOL    HW1 2143   0.390   2.959   1.028 -0.8918 -0.0479 -1.1850
  517SOL    HW2 2144   0.446   2.819   1.010  1.3137  0.5332  0.7263
  518SOL     OW 2145   1.872   1.425   0.296 -0.5990  0.6042  0.0494
  518SOL    HW1 2146   1.833   1.353   0.248 -1.4680  0.8430  0.3716
  518SOL    HW2 2147   1.814   1.439   0.370 -1.7405  3.0962 -1.1924
  519SOL     OW 2148   5.505   2.729   1.943  0.1516  0.2410 -0.1994
  519SOL    HW1 2149   5.556   2.795   1.989  0.0849 -0.5397  1.0333
  519SOL    HW2 2150   5.456   2.779   1.877  0.5056  1.3502  0.3482
  520SOL     OW 2151   6.440   2.507   1.400 -0.5396 -0.1369 -0.2293
  520SOL    HW1 2152   6.399   2.529   1.484  1.7225  2.3521  0.3518
  520SOL    HW2 2153   6.474   2.590   1.367  1.5321 -1.5648 -2.0060
  521SOL     OW 2154   2.124   1.056   2.849  0.0032  0.1368  0.1391
  521SOL    HW1 2155   2.130   0.960   2.842 -0.6514  0.1254 -0.3096
  521SOL    HW2 2156   2.113   1.072   2.943  0.6507 -0.1938  0.2782
  522SOL     OW 2157   1.773   1.522   3.514 -0.1333  0.3527  0.0824
  522SOL    HW1 2158   1.818   1.443   3.544  0.1864  0.8042  0.8369
  522SOL    HW2 2159   1.687   1.517   3.556 -0.8900 -0.5869 -1.4809
  523SOL     OW 2160   5.385   4.853   3.201 -0.1412 -0.0813 -0.3195
  523SOL    HW1 2161   5.398   4.919   3.133  0.8053  0.8471  0.6987
  523SOL    HW2 2162   5.457   4.869   3.263 -0.4132 -1.5104  0.4058
  524SOL     OW 2163   0.995   2.757   1.130 -0.6105 -0.3261 -0.1349
  524SOL    HW1 2164   0.992   2.687   1.065 -2.4410 -1.0658  0.6454
  524SOL    HW2 2165   0.909   2.799   1.124  0.8651  2.8019 -1.4861
  525SOL     OW 2166   6.979   3.875   0.561  0.0769  0.1803  0.3852
  525SOL    HW1 2167   6.946   3.899   0.647  0.8400  1.0006  0.4676
  525SOL    HW2 2168   6.980   3.957   0.512  1.0202 -0.0064  0.0710
  526SOL     OW 2169   1.283   3.771   2.074 -0.2396  0.1130 -0.3387
  526SOL    HW1 2170   1.305   3.700   2.134  0.1892  0.7769  0.3203
  526SOL    HW2 2171   1.265   3.728   1.991 -0.9482 -0.8473  0.2868
  527SOL     OW 2172   1.392   4.037   1.484 -0.1391 -0.3602 -0.8911
  527SOL    HW1 2173   1.481   4.055   1.453 -0.1548 -0.3537 -0.9329
  527SOL    HW2 2174   1.338   4.105   1.443 -0.0921 -0.0835 -0.4947
  528SOL     OW 2175   7.001   3.252   1.958 -0.0509  0.2553  0.3320
  528SOL    HW1 2176   6.937   3.183   1.939  1.6184 -1.2417 -0.1177
  528SOL    HW2 2177   7.040   3.226   2.041  1.4484 -0.0433 -0.4331
  529SOL     OW 2178   0.189   1.878   1.246  0.7038  0.0350  0.6908
  529SOL    HW1 2179   0.177   1.784   1.232 -0.5385  0.0646  1.4784
  529SOL    HW2 2180   0.276   1.896   1.209  0.5066 -1.2068 -0.4676
  530SOL     OW 2181   0.054   2.830   3.388  0.3451  0.2553 -0.2055
  530SOL    HW1 2182   0.013   2.779   3.318 -1.7218  2.0141 -0.3747
  530SOL    HW2 2183   0.038   2.779   3.467 -1.7028  0.5440 -0.3719
  531SOL     OW 2184   1.604   1.690   1.282  0.1715 -0.0659  0.5759
  531SOL    HW1 2185   1.667   1.720   1.347  1.0207  0.5442 -0.4906
  531SOL    HW2 2186   1.530   1.658   1.333  0.7940  0.4329  1.8308
  532SOL     OW 2187   1.093   3.970   2.014  0.3843 -0.1913  0.0686
  532SOL    HW1 2188   1.034   3.895   2.018 -1.5506  1.3109  1.5493
  532SOL    HW2 2189   1.181   3.931   2.015 -0.5360 -2.4326 -0.1332
  533SOL     OW 2190   1.148   2.316   0.621 -0.3131  0.2789  0.9646
  533SOL    HW1 2191   1.189   2.400   0.602  0.2204 -0.4775 -1.6674
  533SOL    HW2 2192   1.195   2.284   0.699  1.2980  1.2556  0.4526
  534SOL     OW 2193   1.822   2.436   2.132  0.1126  0.6222  0.1288
  534SOL    HW1 2194   1.773   2.512   2.101  0.9664  1.4556  0.7707
  534SOL    HW2 2195   1.827   2.446   2.227 -0.5116 -0.7093  0.3309
  535SOL     OW 2196   1.454   0.587   3.184 -0.0372  0.2169  0.5051
  535SOL    HW1 2197   1.485   0.630   3.104  0.4677  0.3642  0.7721
  535SOL    HW2 2198   1.533   0.576   3.237 -0.5569  1.2324  1.5156
  536SOL     OW 2199   7.271   2.054   2.639 -0.4589 -0.1018 -0.4596
  536SOL    HW1 2200   7.255   2.119   2.707 -1.0914 -1.8215  1.1390
  536SOL    HW2 2201   7.185   2.038   2.600 -0.7416 -1.4438  0.6172
  537SOL     OW 2202   6.457   0.194   1.014 -0.2522  0.0765  0.0832
  537SOL    HW1 2203   6.388   0.202   1.080  0.9093  0.4424  1.3002
  537SOL    HW2 2204   6.440   0.265   0.953  0.2448  1.5602  1.5673
  538SOL     OW 2205   6.630   1.869   1.679  0.0107  0.1030 -0.6437
  538SOL    HW1 2206   6.692   1.929   1.636  0.1145  0.7781  0.4035
  538SOL    HW2 2207   6.682   1.824   1.745 -0.1201 -1.0119 -1.2790
  539SOL     OW 2208   6.998   2.461   0.053 -0.1239 -0.1272  0.0289
  539SOL    HW1 2209   7.068   2.517   0.020  0.9575 -2.0628 -1.1201
  539SOL    HW2 2210   6.943   2.444  -0.023  0.2809 -1.6324  0.0550
  540SOL     OW 2211   7.030   2.900   0.855  0.0658  0.1268  0.5353
  540SOL    HW1 2212   7.090   2.830   0.829  0.7964  0.6776  0.6976
  540SOL    HW2 2213   6.952   2.885   0.803  0.0066 -1.1158  0.9361
  541SOL     OW 2214   0.884   1.583   3.040 -0.2771 -0.1519  0.2324
  541SOL    HW1 2215   0.836   1.501   3.047 -0.3005 -0.2458 -0.8636
  541SOL    HW2 2216   0.976   1.557   3.034 -0.4020 -0.2669 -2.1951
  542SOL     OW 2217   2.715   3.762   2.156  0.1711 -0.0731  0.4138
  542SOL    HW1 2218   2.781   3.704   2.196  2.4197  1.8003 -0.3720
  542SOL    HW2 2219   2.652   3.777   2.226  1.7572 -0.2057  1.9462
  543SOL     OW 2220   1.795   2.860   3.267  0.0915  0.1925  0.0598
  543SOL    HW1 2221   1.719   2.855   3.208 -0.3044 -0.5237  0.6130
  543SOL    HW2 2222   1.857   2.916   3.221 -1.1209  1.5421 -0.0090
  544SOL     OW 2223   1.314   5.030   2.360  0.3389 -0.1521  0.0410
  544SOL    HW1 2224   1.321   4.940   2.327 -1.7551  0.9370 -3.8714
  544SOL    HW2 2225   1.263   5.021   2.441 -0.3299 -2.4415 -0.5377
  545SOL     OW 2226   6.206   2.087   1.741 -0.5559 -0.2298  1.3642
  545SOL    HW1 2227   6.224   2.059   1.652 -0.4778  1.1769  0.9135
  545SOL    HW2 2228   6.280   2.054   1.792  1.1440  1.7039  0.3167
  546SOL     OW 2229   1.776   1.719   1.069 -0.0022  0.2014 -0.7853
  546SOL    HW1 2230   1.854   1.710   1.124 -0.4256  1.4621  0.0572
  546SOL    HW2 2231   1.704   1.698   1.128 -0.2911 -1.9143 -1.8048
  547SOL     OW 2232   0.394   3.826   1.344 -0.2174 -0.7284 -0.1891
  547SOL    HW1 2233   0.360   3.743   1.378 -0.8109 -1.0017 -1.3663
  547SOL    HW2 2234   0.488   3.813   1.334 -0.4319 -1.6263 -1.2637
  548SOL     OW 2235   1.689   2.499   1.220  0.4080  0.4095  0.1428
  548SOL    HW1 2236   1.609   2.537   1.184  0.4819  0.9482  0.5252
  548SOL    HW2 2237   1.659   2.424   1.271  0.4984 -1.8355 -2.8868
  549SOL     OW 2238   6.890   5.325   1.432 -0.4458 -0.0106  0.5117
  549SOL    HW1 2239   6.936   5.251   1.471 -0.0975  0.6337  1.3631
  549SOL    HW2 2240   6.859   5.376   1.507  1.5287  2.0865  0.0323
  550SOL     OW 2241   0.451   1.920   1.412  0.5318 -0.3500 -0.4965
  550SOL    HW1 2242   0.433   1.956   1.325 -1.7033  0.5635  0.2693
  550SOL    HW2 2243   0.468   1.827   1.397 -0.4346 -0.3317 -1.8602
  551SOL     OW 2244   1.128   1.078   1.303 -0.8786 -0.2091 -0.2620
  551SOL    HW1 2245   1.118   1.032   1.386 -0.9170  0.5287  0.1545
  551SOL    HW2 2246   1.079   1.025   1.240 -1.3320 -0.4762  0.3016
  552SOL     OW 2247   6.359   1.837   2.776 -0.0090  0.2362  0.0524
  552SOL    HW1 2248   6.397   1.925   2.772  2.8840 -0.5203  4.1716
  552SOL    HW2 2249   6.266   1.853   2.797  0.2171  2.2573 -0.2381
  553SOL     OW 2250   0.427   4.867   0.708 -0.2669 -0.5270  0.2461
  553SOL    HW1 2251   0.374   4.828   0.639 -1.3214 -0.1801  0.8482
  553SOL    HW2 2252   0.409   4.961   0.702  1.5858 -0.1855 -0.6284
  554SOL     OW 2253   6.245   1.966   1.471 -0.2025 -0.5795  0.1806
  554SOL    HW1 2254   6.180   1.903   1.439 -1.6437  0.8932  0.0729
  554SOL    HW2 2255   6.299   1.917   1.532 -0.7927 -2.0993 -0.4802
  555SOL     OW 2256   3.163   3.562   3.142  0.1559 -0.5827  0.1549
  555SOL    HW1 2257   3.135   3.584   3.053  1.2459 -0.3194 -0.1364
  555SOL    HW2 2258   3.202   3.643   3.176 -1.1595 -0.3752  1.2624
  556SOL     OW 2259   0.758   3.521   1.880  0.3305 -0.1589  0.2382
  556SOL    HW1 2260   0.733   3.435   1.913  0.4299 -0.9167 -1.5369
  556SOL    HW2 2261   0.683   3.548   1.826  0.7143  0.4223 -0.0098
  557SOL     OW 2262   0.468   4.870   2.942 -0.2716  0.2878  1.0062
  557SOL    HW1 2263   0.437   4.805   2.878  1.0192  0.1078  0.5403
  557SOL    HW2 2264   0.503   4.941   2.889  0.7361  0.1717  1.4940
  558SOL     OW 2265   0.104   1.703   0.324 -0.5353 -0.3081 -0.6311
  558SOL    HW1 2266   0.024   1.659   0.298 -1.4655 -0.1962  1.7772
  558SOL    HW2 2267   0.088   1.796   0.308 -0.2304 -0.4240 -1.6716
  559SOL     OW 2268   0.509   2.208   1.144 -0.5268  0.3590  0.4776
  559SOL    HW1 2269   0.511   2.260   1.063 -0.4578  0.2633  0.4187
  559SOL    HW2 2270   0.439   2.248   1.196 -3.0378 -1.7462 -1.0570
  560SOL     OW 2271   1.128   1.264   0.451  0.1977 -0.2560 -0.2651
  560SOL    HW1 2272   1.123   1.318   0.530  0.7538 -1.2605  0.4844
  560SOL    HW2 2273   1.188   1.311   0.393  1.5944 -0.6106  0.8400
  561SOL     OW 2274   1.209   1.076   0.667 -0.4830  0.0842 -0.0884
  561SOL    HW1 2275   1.207   1.121   0.583 -0.4043 -3.1035 -1.9635
  561SOL    HW2 2276   1.118   1.058   0.688 -0.4276 -0.4994 -0.3266
  562SOL     OW 2277   0.431   3.364   1.876 -0.0422  0.2055  0.5868
  562SOL    HW1 2278   0.471   3.317   1.803 -2.8609 -0.1123 -0.8784
  562SOL    HW2 2279   0.429   3.300   1.947 -0.0042 -0.4924 -0.0264
  563SOL     OW 2280   1.514   3.129   3.317 -0.1358  0.1261 -0.1243
  563SOL    HW1 2281   1.575   3.074   3.267  0.2950 -0.5004  1.0586
  563SOL    HW2 2282   1.459   3.066   3.365 -0.8522  0.7102 -0.1596
  564SOL     OW 2283   2.060   3.458   2.801 -0.0592  0.1730  0.5069
  564SOL    HW1 2284   1.977   3.487   2.840 -0.6632 -2.1877  1.1189
  564SOL    HW2 2285   2.067   3.510   2.721 -2.7984 -0.4010 -0.2292
  565SOL     OW 2286   5.281   2.537   2.065  0.3771  0.4291 -0.0214
  565SOL    HW1 2287   5.231   2.488   2.130 -1.5561  1.3345 -0.7460
  565SOL    HW2 2288   5.282   2.479   1.988 -2.2355  1.5617 -1.0053
  566SOL     OW 2289   1.767   1.925   0.886 -0.4207 -0.5240  0.3875
  566SOL    HW1 2290   1.788   1.880   0.804 -0.4351 -0.2310  0.2224
  566SOL    HW2 2291   1.787   1.860   0.954  2.9648  0.3374  0.3904
  567SOL     OW 2292   0.578   2.447   1.505  0.2479  0.1317 -0.4759
  567SOL    HW1 2293   0.530   2.366   1.486  2.0318 -1.1718  0.2142
  567SOL    HW2 2294   0.569   2.458   1.600  0.3064  0.5411 -0.5183
  568SOL     OW 2295   6.575   2.315   2.979  0.4338 -0.1192 -0.0566
  568SOL    HW1 2296   6.583   2.240   3.039  0.7311 -0.9290 -1.0672
  568SOL    HW2 2297   6.484   2.312   2.949  1.0735 -1.7563 -2.1269
  569SOL     OW 2298   6.853   2.096   0.466  0.7782 -0.4189 -0.2616
  569SOL    HW1 2299   6.762   2.074   0.484  0.5314 -1.3958 -2.4229
  569SOL    HW2 2300   6.860   2.096   0.371  2.5574  1.7765 -0.2242
  570SOL     OW 2301   0.329   3.105   0.190  0.4770 -0.1995 -0.2474
  570SOL    HW1 2302   0.337   3.011   0.210  0.3368  0.0203  0.8493
  570SOL    HW2 2303   0.259   3.109   0.124 -1.8663 -0.5928  2.0754
  571SOL     OW 2304   0.081   2.936   2.313  0.0810 -0.4250 -0.0838
  571SOL    HW1 2305   0.111   2.905   2.227  2.4038  0.1560  0.4376
  571SOL    HW2 2306   0.141   2.895   2.375 -0.3083  0.7121  1.0746
  572SOL     OW 2307   6.695   3.245   1.629 -0.1657  0.1947  0.5748
  572SOL    HW1 2308   6.658   3.249   1.541  0.9315  2.1746  0.1476
  572SOL    HW2 2309   6.629   3.289   1.684  0.3497  1.3894  0.2581
  573SOL     OW 2310   7.280   4.053   0.493 -0.3761 -0.2733  0.1997
  573SOL    HW1 2311   7.363   4.064   0.446 -0.1371  0.6576  0.8157
  573SOL    HW2 2312   7.232   3.987   0.442 -0.4213  1.1770 -1.7465
  574SOL     OW 2313   7.037   3.231   3.501 -0.4647 -0.1643  0.0398
  574SOL    HW1 2314   7.116   3.285   3.503  0.2944 -1.2575  1.3365
  574SOL    HW2 2315   7.060   3.157   3.445  0.0667 -1.3227  1.7003
  575SOL     OW 2316   0.768   1.769   0.498  0.0922  0.4772 -0.0619
  575SOL    HW1 2317   0.715   1.833   0.545  0.1498  0.0581  0.5945
  575SOL    HW2 2318   0.711   1.735   0.430 -0.5040  0.0327  0.6405
  576SOL     OW 2319   7.205   1.808   0.881 -0.1587 -0.4848 -0.0239
  576SOL    HW1 2320   7.221   1.821   0.787 -0.5717 -0.1861 -0.0545
  576SOL    HW2 2321   7.291   1.783   0.916  0.0834 -0.2230 -0.4154
  577SOL     OW 2322   1.986   0.789   0.016 -0.5289 -0.2518 -0.1180
  577SOL    HW1 2323   1.917   0.790  -0.050  0.2364  2.6845 -1.0591
  577SOL    HW2 2324   1.957   0.853   0.082  1.1164  0.8720 -0.4254
  578SOL     OW 2325   0.546   3.462   0.116 -0.0119  0.4790  0.3635
  578SOL    HW1 2326   0.591   3.386   0.079 -1.6608 -0.3330 -0.0906
  578SOL    HW2 2327   0.614   3.528   0.126  1.1790 -0.5391 -0.6918
  579SOL     OW 2328   0.179   2.183   2.495 -0.3385  0.2353  0.1448
  579SOL    HW1 2329   0.267   2.176   2.532 -0.4715 -0.7166  0.3023
  579SOL    HW2 2330   0.160   2.095   2.461 -0.8713  0.6672 -0.7035
  580SOL     OW 2331   1.863   3.768   0.717  0.1157 -0.1341 -0.6599
  580SOL    HW1 2332   1.825   3.767   0.630 -0.6766  1.4376 -0.3718
  580SOL    HW2 2333   1.838   3.853   0.753 -1.6102 -1.6001  1.9766
  581SOL     OW 2334   4.718   3.117   1.747 -0.4467 -0.0058 -0.4609
  581SOL    HW1 2335   4.795   3.173   1.745 -0.5286  0.2109  1.3700
  581SOL    HW2 2336   4.666   3.146   1.671  0.8290  0.4308 -1.2042
  582SOL     OW 2337   3.554   2.918   1.767 -0.2344  0.2213 -0.5202
  582SOL    HW1 2338   3.510   2.887   1.688  0.4172 -0.0811 -0.7743
  582SOL    HW2 2339   3.636   2.958   1.735  0.8120 -1.3306  0.0967
  583SOL     OW 2340   1.337   3.846   0.455  0.3055 -0.4947  0.0297
  583SOL    HW1 2341   1.393   3.828   0.379 -1.5735  1.3017 -1.9341
  583SOL    HW2 2342   1.285   3.767   0.466 -0.3559 -0.3155 -1.5141
  584SOL     OW 2343   1.810   2.945   1.475  0.5630 -0.0248 -0.4470
  584SOL    HW1 2344   1.781   2.979   1.390 -0.3526  3.7421  1.1716
  584SOL    HW2 2345   1.900   2.976   1.484 -0.1060  1.6489  0.8510
  585SOL     OW 2346   2.347   0.859   1.432 -0.6272 -0.2974  0.3414
  585SOL    HW1 2347   2.312   0.933   1.382  0.0184 -1.5238 -2.0661
  585SOL    HW2 2348   2.270   0.820   1.473 -1.0312  1.3828  1.2804
  586SOL     OW 2349   6.430   1.706   2.550 -0.3483  0.0278  0.3698
  586SOL    HW1 2350   6.401   1.751   2.630 -1.0611 -0.5786  0.4594
  586SOL    HW2 2351   6.525   1.701   2.559 -0.2118  1.7919  0.2104
  587SOL     OW 2352   2.366   2.660   2.291  0.3002  0.2235 -0.1955
  587SOL    HW1 2353   2.381   2.612   2.372  2.7474  2.0269  0.5319
  587SOL    HW2 2354   2.271   2.657   2.279 -0.0873 -0.5773  2.4145
  588SOL     OW 2355   1.335   4.201   1.981 -0.1525 -0.0276 -0.4868
  588SOL    HW1 2356   1.288   4.143   1.921  1.5354 -2.4561  0.3392
  588SOL    HW2 2357   1.344   4.284   1.934 -2.1021 -0.6388 -2.0305
  589SOL     OW 2358   0.085   0.591   0.478  0.1432  0.2071  0.5520
  589SOL    HW1 2359   0.065   0.685   0.474  0.1694  0.1918 -0.1510
  589SOL    HW2 2360   0.052   0.563   0.563 -2.0467  0.3855 -0.1758
  590SOL     OW 2361   0.910   5.118   0.627 -0.4538  0.1753 -0.5624
  590SOL    HW1 2362   0.997   5.151   0.646 -0.9251 -0.7161  4.7457
  590SOL    HW2 2363   0.853   5.194   0.631 -0.3015  0.2790 -0.3826
  591SOL     OW 2364   2.401   3.023   3.362  0.3429 -1.2199 -0.0660
  591SOL    HW1 2365   2.385   3.070   3.280 -1.3499 -1.1574  0.2512
  591SOL    HW2 2366   2.469   3.073   3.407  1.2513 -1.2211 -1.3895
  592SOL     OW 2367   7.175   2.136   0.414  0.7937 -0.6595  0.1228
  592SOL    HW1 2368   7.113   2.193   0.368  1.1392 -0.1491  0.2897
  592SOL    HW2 2369   7.203   2.073   0.347  0.3965 -0.6486 -0.0561
  593SOL     OW 2370   0.307   2.189   0.805 -0.4494  0.2033 -0.2207
  593SOL    HW1 2371   0.277   2.119   0.746 -1.6584  0.3683  0.1621
  593SOL    HW2 2372   0.269   2.166   0.890  3.4891 -1.5298  1.2717
  594SOL     OW 2373   0.843   2.586   2.502  0.0758  0.0521 -0.2497
  594SOL    HW1 2374   0.884   2.634   2.574 -0.0227 -2.0588  1.3039
  594SOL    HW2 2375   0.753   2.619   2.500  0.3193  0.7566  0.0007
  595SOL     OW 2376   7.168   0.659   0.345  0.0310 -0.0192  0.0935
  595SOL    HW1 2377   7.164   0.574   0.389  0.5617  0.8595  1.9736
  595SOL    HW2 2378   7.222   0.644   0.267  2.4594 -0.8977  1.8226
  596SOL     OW 2379   7.165   4.066   3.178  0.7677 -0.1515 -0.0194
  596SOL    HW1 2380   7.202   3.984   3.211 -0.2924 -0.0496  1.5350
  596SOL    HW2 2381   7.198   4.133   3.238 -0.3251  0.2154  0.1814
  597SOL     OW 2382   1.237   2.549   0.947  0.0681  0.7119  0.2076
  597SOL    HW1 2383   1.187   2.512   1.020 -1.1892 -1.0549 -1.4240
  597SOL    HW2 2384   1.176   2.609   0.905 -0.1814 -0.2525 -0.8675
  598SOL     OW 2385   0.079   1.491   1.940  0.0274  0.6231  0.2302
  598SOL    HW1 2386   0.023   1.415   1.956  0.0951  0.5487  0.1189
  598SOL    HW2 2387   0.044   1.559   1.997  0.3368  0.3337  0.7749
  599SOL     OW 2388   6.085   2.978   0.331 -0.2076  0.0906 -0.1085
  599SOL    HW1 2389   6.026   3.050   0.352  0.7682  1.1583 -0.9096
  599SOL    HW2 2390   6.130   2.959   0.413 -0.3858  0.4750  0.0798
  600SOL     OW 2391   6.832   3.402   0.303 -0.1735  0.6013 -0.1108
  600SOL    HW1 2392   6.842   3.451   0.384  1.5721  0.2720 -0.0924
  600SOL    HW2 2393   6.863   3.314   0.324 -1.6669 -0.0824 -0.5996
  601SOL     OW 2394   1.455   2.520   3.165  0.4624 -0.2416 -0.6481
  601SOL    HW1 2395   1.403   2.542   3.087  0.3352 -1.7000 -1.0155
  601SOL    HW2 2396   1.397   2.464   3.217  0.6223  0.5515  0.4151
  602SOL     OW 2397   1.633   1.971   2.378 -0.1935 -0.3619 -0.9945
  602SOL    HW1 2398   1.711   1.919   2.396  0.2022  0.6933  0.4762
  602SOL    HW2 2399   1.573   1.949   2.450  0.1867  1.5623 -0.0342
  603SOL     OW 2400   2.575   2.812   2.500  0.1719 -0.3116 -0.2222
  603SOL    HW1 2401   2.536   2.731   2.467 -2.4324  0.1954  1.2941
  603SOL    HW2 2402   2.618   2.786   2.582 -0.5188 -0.2505  0.1767
  604SOL     OW 2403   1.535   3.832   0.276 -0.3589 -0.4244 -0.2084
  604SOL    HW1 2404   1.511   3.797   0.190 -0.3562  0.8346 -0.7418
  604SOL    HW2 2405   1.543   3.927   0.262 -0.5346 -0.1742  1.2164
  605SOL     OW 2406   0.187   1.771   3.438  0.6307 -0.1833 -0.7681
  605SOL    HW1 2407   0.130   1.695   3.433  0.5223 -0.0869 -1.0170
  605SOL    HW2 2408   0.273   1.738   3.415  0.7311 -0.3854 -0.1213
  606SOL     OW 2409   1.236   1.050   1.670  0.1700  0.5049  0.0858
  606SOL    HW1 2410   1.236   1.145   1.659 -0.0466  0.3744 -1.1846
  606SOL    HW2 2411   1.288   1.035   1.749  0.0316  1.6870  0.4171
  607SOL     OW 2412   2.618   3.453   2.374 -0.2836  0.5557 -0.4962
  607SOL    HW1 2413   2.595   3.544   2.395 -0.3046  0.9104 -1.9490
  607SOL    HW2 2414   2.714   3.451   2.381 -0.3034  0.5915 -0.1568
  608SOL     OW 2415   1.280   3.239   0.743  0.4483  0.1985 -0.5624
  608SOL    HW1 2416   1.230   3.214   0.665  0.8567 -0.6132 -0.5775
  608SOL    HW2 2417   1.360   3.279   0.709  0.4588  0.1855 -0.5528
  609SOL     OW 2418   7.241   3.887   1.956 -0.0145  0.5072 -0.1118
  609SOL    HW1 2419   7.296   3.812   1.934  1.3693  2.0768 -2.3523
  609SOL    HW2 2420   7.152   3.857   1.935  0.2123 -1.1788  1.0918
  610SOL     OW 2421   1.033   2.020   1.179  0.5452  0.8579 -0.1904
  610SOL    HW1 2422   0.992   1.985   1.258 -0.4859  0.4178 -0.8924
  610SOL    HW2 2423   1.102   1.957   1.158 -0.8776 -0.4783 -1.0839
  611SOL     OW 2424   7.410   3.892   2.892  0.0918  0.1927 -0.3425
  611SOL    HW1 2425   7.446   3.943   2.820 -0.2972  1.1404  0.1256
  611SOL    HW2 2426   7.321   3.925   2.903  0.5287  0.9099  1.3397
  612SOL     OW 2427   7.209   1.101   1.591 -0.3960 -0.1149 -0.4313
  612SOL    HW1 2428   7.179   1.177   1.540 -0.9805 -0.8745 -1.2495
  612SOL    HW2 2429   7.225   1.033   1.526  2.1912 -0.0811  0.0700
  613SOL     OW 2430   0.329   4.487   1.949  0.2918  0.4358  0.1241
  613SOL    HW1 2431   0.389   4.459   2.018  0.0734 -2.8494 -0.8933
  613SOL    HW2 2432   0.377   4.474   1.868 -0.7286  0.7565 -0.5530
  614SOL     OW 2433   0.149   2.426   0.393  0.8223 -0.2044 -0.2398
  614SOL    HW1 2434   0.064   2.462   0.368 -0.4418 -3.0949 -0.4141
  614SOL    HW2 2435   0.195   2.415   0.310  0.3554 -0.9879 -0.4002
  615SOL     OW 2436   0.661   4.580   1.520 -0.4470 -0.5043 -0.2364
  615SOL    HW1 2437   0.754   4.600   1.513 -0.4486 -0.1797  0.5515
  615SOL    HW2 2438   0.637   4.607   1.609 -1.3405 -0.3879 -0.4991
  616SOL     OW 2439   1.262   1.873   2.277 -0.1218  0.5738 -0.2380
  616SOL    HW1 2440   1.231   1.784   2.264 -0.1181  0.7265 -1.4103
  616SOL    HW2 2441   1.300   1.898   2.192  2.2311  0.7710  0.8059
  617SOL     OW 2442   0.704   3.593   2.435 -0.3417  0.2982  0.7354
  617SOL    HW1 2443   0.663   3.651   2.371  2.4295  0.3301 -1.1561
  617SOL    HW2 2444   0.744   3.524   2.383 -0.9009 -1.6292  2.7349
  618SOL     OW 2445   6.987   2.650   2.246  0.1447  0.4933 -0.0724
  618SOL    HW1 2446   6.932   2.694   2.181  0.5810  0.9984 -0.1055
  618SOL    HW2 2447   6.946   2.564   2.258 -0.6938  0.8815 -0.0419
  619SOL     OW 2448   7.050   2.081   0.148 -0.4688 -0.0154  0.6466
  619SOL    HW1 2449   6.986   2.112   0.084  1.9229 -0.3945 -2.1255
  619SOL    HW2 2450   7.128   2.133   0.130  2.1901 -4.0552 -0.9287
  620SOL     OW 2451   2.302   4.961   2.629  0.2746 -0.2116  0.1795
  620SOL    HW1 2452   2.310   4.927   2.718  0.1912 -0.3167  0.1476
  620SOL    HW2 2453   2.358   5.039   2.627  0.1137 -0.0891  0.3845
  621SOL     OW 2454   6.453   1.220   2.921 -0.3107  0.4734  0.3889
  621SOL    HW1 2455   6.509   1.242   2.995  0.5007  1.0112 -0.3625
  621SOL    HW2 2456   6.394   1.152   2.955  2.1848 -1.7405  0.6782
  622SOL     OW 2457   1.591   1.711   0.300 -0.0769 -0.2142  0.2943
  622SOL    HW1 2458   1.538   1.789   0.284 -0.1905 -0.1995  0.7221
  622SOL    HW2 2459   1.564   1.649   0.232 -1.0536 -0.4100  0.8480
  623SOL     OW 2460   6.782   3.251   1.054 -0.4136 -0.0438  0.8478
  623SOL    HW1 2461   6.851   3.252   1.120 -1.2534 -0.4632  1.7358
  623SOL    HW2 2462   6.710   3.203   1.094 -1.1369  0.1651 -0.1683
  624SOL     OW 2463   6.542   3.359   1.828  0.0867  0.2009 -0.0820
  624SOL    HW1 2464   6.477   3.289   1.833  0.3456  0.0463  1.5341
  624SOL    HW2 2465   6.579   3.364   1.916  2.1752  0.3728 -0.9091
  625SOL     OW 2466   7.254   2.467   1.007  0.4576  1.0641 -0.2517
  625SOL    HW1 2467   7.186   2.462   0.939  1.1401  0.9503 -0.9337
  625SOL    HW2 2468   7.267   2.376   1.035  1.2229  0.9191 -1.0303
  626SOL     OW 2469   1.224   4.037   3.390 -0.1610  0.4546  0.3932
  626SOL    HW1 2470   1.208   3.949   3.355 -1.2386  0.5426  0.6176
  626SOL    HW2 2471   1.202   4.030   3.483  1.0275  0.6493  0.7126
  627SOL     OW 2472   0.140   1.110   1.380  0.4846 -0.4227  0.0310
  627SOL    HW1 2473   0.229   1.076   1.368  0.0670 -1.3970 -0.3594
  627SOL    HW2 2474   0.153   1.195   1.423  1.6141 -0.4147 -0.2904
  628SOL     OW 2475   1.330   2.823   2.540  0.0465 -0.4525  0.4067
  628SOL    HW1 2476   1.396   2.869   2.489  0.9449 -2.2534 -0.1186
  628SOL    HW2 2477   1.274   2.893   2.576  1.1628  0.9971 -0.5861
  629SOL     OW 2478   6.871   1.896   1.143  0.3310 -0.1041  0.1394
  629SOL    HW1 2479   6.862   1.821   1.085 -1.7559  2.1069 -2.7035
  629SOL    HW2 2480   6.958   1.931   1.123  0.3175 -0.3544 -0.3850
  630SOL     OW 2481   2.440   3.384   1.512 -0.2300  0.7135 -0.7809
  630SOL    HW1 2482   2.349   3.361   1.532  0.3266 -1.2526 -0.3345
  630SOL    HW2 2483   2.434   3.470   1.469 -2.2548  0.7654 -0.4821
  631SOL     OW 2484   5.759   2.770   0.871  0.5140 -0.0908  0.5116
  631SOL    HW1 2485   5.776   2.809   0.956  0.8189  1.3158 -0.1731
  631SOL    HW2 2486   5.835   2.793   0.817 -0.5887  0.8015 -0.7255
  632SOL     OW 2487   1.570   3.333   1.488  0.3064 -0.4199  0.6247
  632SOL    HW1 2488   1.605   3.325   1.576  1.6207  0.0185  0.1687
  632SOL    HW2 2489   1.592   3.249   1.446  2.1685  0.3846 -0.1017
  633SOL     OW 2490   1.784   2.886   0.041  0.1611 -0.2505 -0.5543
  633SOL    HW1 2491   1.743   2.869  -0.044 -1.4264  0.1141  0.1030
  633SOL    HW2 2492   1.781   2.981   0.050 -0.2217 -0.3273  0.1631
  634SOL     OW 2493   2.619   2.695   2.171  0.0098  0.4907 -0.2032
  634SOL    HW1 2494   2.597   2.694   2.077 -0.7307 -3.0570 -0.1163
  634SOL    HW2 2495   2.534   2.703   2.215  0.1703  0.1644  0.1639
  635SOL     OW 2496   6.317   3.470   0.526 -0.1015  0.1931  0.3812
  635SOL    HW1 2497   6.270   3.465   0.443  2.2185 -0.0352 -1.0018
  635SOL    HW2 2498   6.319   3.563   0.547  1.3495  0.5327 -1.1180
  636SOL     OW 2499   2.464   2.784   3.219  0.3283  0.3275 -0.0796
  636SOL    HW1 2500   2.511   2.792   3.137 -0.8171  0.1966 -0.7790
  636SOL    HW2 2501   2.469   2.871   3.259 -0.4025  0.8275 -1.0379
  637SOL     OW 2502   1.375   1.984   2.046  0.0797 -0.1140  0.1149
  637SOL    HW1 2503   1.400   2.040   1.973  1.2342 -0.3229  0.3272
  637SOL    HW2 2504   1.458   1.959   2.086 -0.5273 -0.1266  1.4089
  638SOL     OW 2505   0.997   3.770   2.480 -0.4071 -0.2239 -0.4329
  638SOL    HW1 2506   0.973   3.714   2.406  0.5932 -1.0612 -0.1437
  638SOL    HW2 2507   1.044   3.844   2.440 -2.6042  0.9956 -0.9203
  639SOL     OW 2508   1.932   1.581   1.639  0.1116  0.2882 -0.0327
  639SOL    HW1 2509   1.905   1.654   1.583 -2.7938 -1.2421 -0.8181
  639SOL    HW2 2510   1.960   1.513   1.578  1.2543  0.1528  0.6231
  640SOL     OW 2511   1.716   0.375   0.370  0.1508  0.1984  0.6080
  640SOL    HW1 2512   1.680   0.357   0.456  1.9051  1.1905  1.6199
  640SOL    HW2 2513   1.770   0.298   0.349  0.7321  0.4925  0.9934
  641SOL     OW 2514   1.097   5.284   0.773 -0.3826  0.0175 -0.2109
  641SOL    HW1 2515   1.083   5.362   0.720 -1.4657  0.4511  0.6826
  641SOL    HW2 2516   1.026   5.284   0.836 -0.0675 -1.3828  0.1915
  642SOL     OW 2517   0.737   1.510   1.364  1.2689  0.1364 -0.3175
  642SOL    HW1 2518   0.787   1.429   1.351 -0.3028 -1.0967  0.9292
  642SOL    HW2 2519   0.776   1.549   1.443  2.3284  0.8922 -1.1749
  643SOL     OW 2520   7.208   3.301   3.094  0.0641 -0.0955 -0.5419
  643SOL    HW1 2521   7.214   3.253   3.011 -1.1393 -0.1856 -0.5930
  643SOL    HW2 2522   7.128   3.268   3.135  0.5590  0.0641  0.5903
  644SOL     OW 2523   2.924   2.527   2.728 -0.3515 -0.5681  0.0898
  644SOL    HW1 2524   2.901   2.496   2.641 -0.9915  1.4730 -0.5136
  644SOL    HW2 2525   3.019   2.531   2.727 -0.2911 -1.6436 -0.0909
  645SOL     OW 2526   0.108   1.418   0.575  0.4852  0.6650 -0.0936
  645SOL    HW1 2527   0.018   1.445   0.557  0.6331  0.6409 -0.9300
  645SOL    HW2 2528   0.100   1.331   0.613  0.2240 -0.2792 -2.1582
  646SOL     OW 2529   0.254   3.891   2.350 -0.7758  0.3012 -0.0538
  646SOL    HW1 2530   0.232   3.797   2.351  1.5952 -0.3232  0.5883
  646SOL    HW2 2531   0.309   3.902   2.273 -1.8793  1.4451 -0.7221
  647SOL     OW 2532   0.695   2.732   2.792 -0.6276  0.0321 -0.3469
  647SOL    HW1 2533   0.763   2.776   2.741 -0.0369  0.0001  0.4024
  647SOL    HW2 2534   0.742   2.687   2.862 -1.5093  1.0272  0.9366
  648SOL     OW 2535   6.404   1.906   0.220  0.1984  0.6177 -0.7934
  648SOL    HW1 2536   6.400   1.813   0.243  0.0344  0.4223 -1.6043
  648SOL    HW2 2537   6.498   1.925   0.214  0.2271  0.1506 -2.0151
  649SOL     OW 2538   0.433   1.950   1.126  0.2239 -0.4219  0.1891
  649SOL    HW1 2539   0.355   1.981   1.080 -0.0837 -1.4435 -0.0140
  649SOL    HW2 2540   0.486   2.028   1.141 -0.7068  0.2353  0.0660
  650SOL     OW 2541   6.873   4.144   2.850 -0.4799 -0.2761 -0.0928
  650SOL    HW1 2542   6.824   4.214   2.894  0.9101  1.3486 -1.0375
  650SOL    HW2 2543   6.890   4.178   2.762 -2.4707 -3.0966 -1.7279
  651SOL     OW 2544   0.899   3.101   1.779 -0.4976 -0.6040 -0.0060
  651SOL    HW1 2545   0.975   3.043   1.789 -0.5993 -0.7012  0.1935
  651SOL    HW2 2546   0.925   3.162   1.710 -0.1633 -0.5138  0.2009
  652SOL     OW 2547  -0.021   2.047   0.859 -0.4486 -0.3751  0.2585
  652SOL    HW1 2548  -0.081   2.115   0.888 -0.4143  0.1107 -0.7440
  652SOL    HW2 2549  -0.074   1.990   0.803 -0.1647 -0.4035  0.0158
  653SOL     OW 2550   0.718   2.411   3.409 -0.6615 -0.3927 -0.2633
  653SOL    HW1 2551   0.750   2.380   3.325 -0.9995 -0.3783 -0.3988
  653SOL    HW2 2552   0.757   2.498   3.419 -1.2877 -0.0376 -0.7981
  654SOL     OW 2553   1.757   3.978   1.984  0.2050 -0.1757 -0.5004
  654SOL    HW1 2554   1.767   4.073   1.980  0.3174 -0.2078 -1.0301
  654SOL    HW2 2555   1.670   3.961   1.949  0.3561 -0.2981 -0.8250
  655SOL     OW 2556   1.288   5.307   3.394  0.3302 -0.4336 -0.7044
  655SOL    HW1 2557   1.266   5.280   3.304 -0.9925 -2.3699  0.1256
  655SOL    HW2 2558   1.294   5.402   3.390  0.5456 -0.4814 -2.8835
  656SOL     OW 2559   7.367   3.569   2.553 -0.3355  0.3623 -0.3090
  656SOL    HW1 2560   7.351   3.482   2.516  1.3181  0.0617 -0.4215
  656SOL    HW2 2561   7.411   3.617   2.483  1.7677  0.1653  0.7701
  657SOL     OW 2562   2.232   3.731   3.015 -0.0190 -0.6161 -0.4888
  657SOL    HW1 2563   2.171   3.762   3.082 -2.3166 -2.6391 -1.5040
  657SOL    HW2 2564   2.224   3.795   2.944 -0.1176 -0.2878 -0.1844
  658SOL     OW 2565   7.104   0.935   2.594 -0.3872 -0.5787 -0.4596
  658SOL    HW1 2566   7.100   0.848   2.634  1.2525 -1.2700 -1.7157
  658SOL    HW2 2567   7.074   0.922   2.504  1.1069 -0.1414 -1.0478
  659SOL     OW 2568   1.724   4.494   1.843  0.4875  0.8462  0.0879
  659SOL    HW1 2569   1.667   4.513   1.769 -0.5340 -1.2424  0.2572
  659SOL    HW2 2570   1.741   4.579   1.884  0.1648  1.8910 -1.8595
  660SOL     OW 2571   1.382   4.387   1.533  0.0983  0.3674 -0.1835
  660SOL    HW1 2572   1.395   4.450   1.462  0.4422  1.3148  0.6911
  660SOL    HW2 2573   1.450   4.409   1.597 -1.0265  0.4148  1.0440
  661SOL     OW 2574   0.328   2.697   3.532 -0.4675 -0.0108  0.6238
  661SOL    HW1 2575   0.238   2.712   3.559  0.1180  1.2677  2.0143
  661SOL    HW2 2576   0.376   2.683   3.614  0.7402  0.2424 -0.0148
  662SOL     OW 2577   2.897   4.349   1.449  0.0205 -0.2454 -0.1154
  662SOL    HW1 2578   2.978   4.344   1.499 -0.0427  1.1229  0.1519
  662SOL    HW2 2579   2.852   4.266   1.468 -0.1483  0.3434  2.3994
  663SOL     OW 2580   1.489   3.666   2.353  0.5444 -0.4353 -0.3776
  663SOL    HW1 2581   1.437   3.740   2.383 -0.5999 -0.5108 -2.0296
  663SOL    HW2 2582   1.532   3.633   2.432 -0.1833  0.9954  0.6574
  664SOL     OW 2583   0.470   4.423   1.727  0.4662  0.7453  0.0828
  664SOL    HW1 2584   0.413   4.455   1.656 -0.9068  0.9166  1.2112
  664SOL    HW2 2585   0.530   4.495   1.744  0.1064  1.1124 -0.1882
  665SOL     OW 2586   0.742   3.125   1.253 -0.1315  0.2794  0.5261
  665SOL    HW1 2587   0.819   3.068   1.258 -0.7572 -0.6313 -0.0095
  665SOL    HW2 2588   0.679   3.086   1.313 -0.1697  1.0604  1.0104
  666SOL     OW 2589   6.188   0.482   2.532 -0.2087  0.0093 -0.0868
  666SOL    HW1 2590   6.214   0.568   2.565  4.4056 -1.6952  1.4837
  666SOL    HW2 2591   6.122   0.451   2.594 -2.0772  2.2985 -0.7685
  667SOL     OW 2592   1.112   2.902   1.787  0.2815  0.0798 -0.1581
  667SOL    HW1 2593   1.191   2.900   1.732  0.6299  0.2890  0.3270
  667SOL    HW2 2594   1.145   2.882   1.875  0.0482  1.8245  0.3543
  668SOL     OW 2595   0.704   3.227   1.927 -0.7386 -0.5885 -0.7455
  668SOL    HW1 2596   0.686   3.190   2.013  1.9545  0.6121  0.4629
  668SOL    HW2 2597   0.770   3.168   1.889  0.5810  0.6710 -0.5033
  669SOL     OW 2598   2.439   4.451   2.938  0.1177 -0.2927  0.2244
  669SOL    HW1 2599   2.425   4.449   3.033 -0.5035  0.2185  0.1499
  669SOL    HW2 2600   2.464   4.541   2.919 -0.2779 -0.2571 -0.1596
  670SOL     OW 2601   1.355   1.679   3.031  0.4326  0.0270 -0.2743
  670SOL    HW1 2602   1.328   1.720   3.113 -0.2555  0.5314 -0.7377
  670SOL    HW2 2603   1.451   1.684   3.033  0.3879  2.4647 -0.6679
  671SOL     OW 2604   0.495   2.597   2.254 -0.4593 -0.1208  0.4797
  671SOL    HW1 2605   0.557   2.535   2.216  0.6008  0.2784  1.4812
  671SOL    HW2 2606   0.441   2.543   2.312  1.0736 -0.0486  2.0918
  672SOL     OW 2607   6.173   4.104   2.672  0.0500  0.1165  0.0033
  672SOL    HW1 2608   6.255   4.133   2.713 -0.7478  1.2234  0.8713
  672SOL    HW2 2609   6.109   4.104   2.743 -1.0196  0.6163 -0.9232
  673SOL     OW 2610   1.765   3.453   2.403 -0.2073 -0.4324 -0.4749
  673SOL    HW1 2611   1.810   3.509   2.340 -1.6163  0.6646 -0.5490
  673SOL    HW2 2612   1.765   3.504   2.484  1.7863 -1.9213  0.5420
  674SOL     OW 2613   0.871   3.933   1.261  0.0161  0.8402  0.0579
  674SOL    HW1 2614   0.932   3.901   1.327 -1.4313 -0.2939  0.9361
  674SOL    HW2 2615   0.926   3.965   1.190  1.6414 -1.2018  0.2883
  675SOL     OW 2616   6.287   1.281   0.756 -0.5213  0.2725  0.1192
  675SOL    HW1 2617   6.228   1.357   0.758 -0.0105  0.6858 -0.0723
  675SOL    HW2 2618   6.374   1.320   0.745 -0.0190 -0.2095  2.0283
  676SOL     OW 2619   7.137   2.479   2.048  0.5405 -0.4662 -0.5668
  676SOL    HW1 2620   7.076   2.528   2.104  0.8076 -1.2498  0.4452
  676SOL    HW2 2621   7.191   2.547   2.006 -0.9994  0.2430 -1.4848
  677SOL     OW 2622   1.618   3.025   1.667  0.1387  0.4415  0.4217
  677SOL    HW1 2623   1.663   2.996   1.587 -0.5668 -1.2770  0.6037
  677SOL    HW2 2624   1.667   3.102   1.695  1.4540  0.0804 -0.7336
  678SOL     OW 2625   1.361   4.981   3.046  0.5641  0.0592  0.0811
  678SOL    HW1 2626   1.329   4.992   3.136 -0.5197  0.6955 -0.3605
  678SOL    HW2 2627   1.456   4.984   3.054  0.4949 -0.0832  1.2306
  679SOL     OW 2628   7.365   0.749   1.730  0.2362 -0.0821 -0.1067
  679SOL    HW1 2629   7.443   0.803   1.716  0.8676 -1.4492 -2.4414
  679SOL    HW2 2630   7.390   0.662   1.697 -1.6344 -1.1099  0.9917
  680SOL     OW 2631   1.526   3.341   2.373  0.2670  0.5450  0.2522
  680SOL    HW1 2632   1.502   3.395   2.298 -0.8621  2.5720  1.9610
  680SOL    HW2 2633   1.622   3.340   2.371  0.3442 -2.0361 -2.8574
  681SOL     OW 2634   3.247   3.253   2.439  0.0991 -0.4433 -0.1067
  681SOL    HW1 2635   3.241   3.313   2.365 -1.8774 -0.7315 -0.2243
  681SOL    HW2 2636   3.262   3.167   2.400 -2.0795 -0.7864 -0.3277
  682SOL     OW 2637   7.049   3.693   3.347  0.1277  0.5496  0.6260
  682SOL    HW1 2638   6.964   3.737   3.341  0.1385  0.5915  0.7609
  682SOL    HW2 2639   7.052   3.662   3.438 -0.3326 -0.6491  0.2540
  683SOL     OW 2640   1.059   2.557   3.136  0.2541  0.0402  0.0887
  683SOL    HW1 2641   1.146   2.521   3.119  0.0110  0.1970 -1.6541
  683SOL    HW2 2642   1.001   2.481   3.130  0.2047  0.0146  0.7945
  684SOL     OW 2643   0.724   3.882   1.630 -0.0463  0.1607  0.2491
  684SOL    HW1 2644   0.678   3.876   1.546 -1.4978 -0.0549  1.0461
  684SOL    HW2 2645   0.700   3.802   1.676  1.4470 -0.1508  0.5617
  685SOL     OW 2646   0.538   2.206   1.741 -0.4985  0.0437 -0.0918
  685SOL    HW1 2647   0.606   2.274   1.743 -1.1408  0.6842  1.7660
  685SOL    HW2 2648   0.461   2.248   1.780 -1.4501 -1.2090 -0.5791
  686SOL     OW 2649   2.276   4.103   0.536  0.1661 -0.1312  0.3612
  686SOL    HW1 2650   2.265   4.110   0.631  1.3780 -0.0041  0.5104
  686SOL    HW2 2651   2.242   4.017   0.513 -1.3481  0.3445  0.7037
  687SOL     OW 2652   2.219   2.310   1.582  0.4457  0.0152 -0.1472
  687SOL    HW1 2653   2.275   2.352   1.647 -1.1163  0.5782  0.8737
  687SOL    HW2 2654   2.132   2.347   1.597 -0.5533 -2.0050 -0.6147
  688SOL     OW 2655   2.562   4.273   2.596  0.1369 -0.2974 -0.1783
  688SOL    HW1 2656   2.489   4.296   2.654  0.6596 -0.6441  0.6228
  688SOL    HW2 2657   2.623   4.346   2.604  0.2299 -0.3646 -0.2731
  689SOL     OW 2658   7.259   3.843   3.309 -0.3185 -0.3605 -0.3733
  689SOL    HW1 2659   7.184   3.783   3.310 -2.9431  2.6288 -0.5928
  689SOL    HW2 2660   7.303   3.827   3.392 -0.7464 -2.6576 -0.5129
  690SOL     OW 2661   1.222   3.794   3.045  0.3392 -0.0719 -0.4315
  690SOL    HW1 2662   1.221   3.699   3.054 -1.4331  0.0651  1.4614
  690SOL    HW2 2663   1.131   3.818   3.028  0.3645  1.4103  1.2239
  691SOL     OW 2664   1.210   1.754   1.555 -0.6316 -0.7703  0.0022
  691SOL    HW1 2665   1.190   1.724   1.643 -0.3863  1.5951  0.9280
  691SOL    HW2 2666   1.124   1.760   1.512 -0.5944 -4.4616 -0.9273
  692SOL     OW 2667   1.380   1.589   1.454 -0.6100 -0.2099  0.3869
  692SOL    HW1 2668   1.316   1.627   1.514 -0.4869  1.5312 -0.5257
  692SOL    HW2 2669   1.328   1.535   1.395 -1.4144  1.7395 -0.7905
  693SOL     OW 2670   1.597   2.601   2.508  0.2147 -0.5492 -0.2185
  693SOL    HW1 2671   1.586   2.555   2.591  1.7986 -1.8440 -0.6724
  693SOL    HW2 2672   1.582   2.693   2.529  0.1665 -0.9006  1.4011
  694SOL     OW 2673   0.419   4.931   1.385  0.0326  0.1758  0.1824
  694SOL    HW1 2674   0.479   4.861   1.360 -0.6779 -0.9733  1.4950
  694SOL    HW2 2675   0.469   5.011   1.373  1.7188 -0.7147  0.9013
  695SOL     OW 2676   1.375   3.250   1.921  0.0582  0.3559  0.1117
  695SOL    HW1 2677   1.409   3.188   1.985 -0.9698 -0.6624 -0.2992
  695SOL    HW2 2678   1.408   3.335   1.950  2.0781 -0.4403  0.2894
  696SOL     OW 2679   1.878   2.262   1.129 -0.6586 -0.1836 -0.0161
  696SOL    HW1 2680   1.812   2.294   1.067 -0.7777 -0.1124  0.1477
  696SOL    HW2 2681   1.868   2.318   1.206  0.4406  0.6652 -0.4659
  697SOL     OW 2682   0.673   1.803   2.642 -0.5105  0.3498 -0.3014
  697SOL    HW1 2683   0.753   1.818   2.590 -0.1966 -0.1395  0.0284
  697SOL    HW2 2684   0.640   1.719   2.610 -1.1262  0.7497 -0.7228
  698SOL     OW 2685   6.481   2.245   0.079 -0.2518 -0.1018 -0.5946
  698SOL    HW1 2686   6.451   2.255  -0.011 -2.3235  0.1549  0.0753
  698SOL    HW2 2687   6.505   2.153   0.087 -1.6513 -0.5201 -0.9863
  699SOL     OW 2688   6.684   3.770   2.299 -0.1382  0.1439 -0.6554
  699SOL    HW1 2689   6.672   3.848   2.352  1.3245 -0.1395  0.1440
  699SOL    HW2 2690   6.763   3.729   2.334 -0.8997 -1.7245 -1.0105
  700SOL     OW 2691   1.795   2.233   3.351 -0.3954 -0.3407  0.0626
  700SOL    HW1 2692   1.794   2.249   3.257  0.4241  1.9305  0.3618
  700SOL    HW2 2693   1.887   2.223   3.373 -0.3863  1.1377  0.8509
  701SOL     OW 2694   7.407   3.607   1.123  0.0337 -0.2689  0.1816
  701SOL    HW1 2695   7.367   3.677   1.174  0.4176  0.4385 -0.4589
  701SOL    HW2 2696   7.369   3.527   1.158 -0.2556  0.2397  1.0790
  702SOL     OW 2697   1.280   1.414   0.908  0.6466 -0.1184  0.3962
  702SOL    HW1 2698   1.294   1.334   0.960  0.1322  0.3897  1.3594
  702SOL    HW2 2699   1.362   1.426   0.861  1.5696 -0.0173  1.9340
  703SOL     OW 2700   0.725   1.881   2.255 -0.6610  0.0163 -0.3210
  703SOL    HW1 2701   0.794   1.858   2.318 -0.0869 -0.3896 -1.0840
  703SOL    HW2 2702   0.719   1.805   2.197  0.1033  1.0941 -1.8841
  704SOL     OW 2703   0.955   4.225   2.033  0.0034 -0.4092  0.2782
  704SOL    HW1 2704   1.030   4.167   2.023 -0.4280 -0.8651 -0.4791
  704SOL    HW2 2705   0.881   4.176   1.996 -0.6518  0.0582  0.9317
  705SOL     OW 2706   1.667   3.417   3.167  0.2044  0.3540 -0.2724
  705SOL    HW1 2707   1.662   3.509   3.139 -1.6632  0.8559  1.4292
  705SOL    HW2 2708   1.719   3.420   3.247 -0.7967  0.1224  0.4001
  706SOL     OW 2709   0.504   1.592   1.885  0.1411 -0.0494  0.6137
  706SOL    HW1 2710   0.542   1.632   1.963  0.3789 -0.3795  0.6674
  706SOL    HW2 2711   0.440   1.529   1.918  0.1329 -0.0825  0.5362
  707SOL     OW 2712   0.144   4.073   3.318 -0.2049 -0.5932  0.2940
  707SOL    HW1 2713   0.144   3.992   3.266 -2.0680 -0.7813  0.5231
  707SOL    HW2 2714   0.062   4.070   3.368  0.8686  0.2406  2.2415
  708SOL     OW 2715   6.684   4.274   3.159  0.1425  0.2668  0.1288
  708SOL    HW1 2716   6.776   4.250   3.148  0.4595  2.0294 -1.6049
  708SOL    HW2 2717   6.675   4.289   3.253  1.5060 -0.3474  0.3930
  709SOL     OW 2718   1.874   2.811   2.679  0.4037  0.0772  0.1409
  709SOL    HW1 2719   1.909   2.819   2.590  2.6373  0.0099  0.9281
  709SOL    HW2 2720   1.945   2.843   2.735 -0.5139 -0.9102  1.9538
  710SOL     OW 2721   1.357   4.046   0.636  0.2566  0.7750  0.0906
  710SOL    HW1 2722   1.342   3.957   0.603  1.3640  0.2843  0.8486
  710SOL    HW2 2723   1.285   4.098   0.599 -0.2673 -0.3799 -0.5634
  711SOL     OW 2724   3.363   3.216   2.697  0.3767  0.4099  0.8535
  711SOL    HW1 2725   3.310   3.238   2.621  0.8937 -0.8154  0.1064
  711SOL    HW2 2726   3.384   3.123   2.686  1.0311  0.3766  2.1438
  712SOL     OW 2727   1.865   1.813   1.493 -0.1439  0.3440  0.1854
  712SOL    HW1 2728   1.787   1.841   1.541 -1.7856  1.8145 -3.0542
  712SOL    HW2 2729   1.908   1.895   1.466  0.9825 -0.4152 -0.4347
  713SOL     OW 2730   0.601   1.938   0.588 -0.4589 -0.0962  0.2099
  713SOL    HW1 2731   0.571   1.922   0.678 -0.3270 -0.4622  0.1929
  713SOL    HW2 2732   0.656   2.015   0.594  1.0252 -1.1499  0.7758
  714SOL     OW 2733   0.191   2.920   3.031 -0.4609  0.1429 -0.1119
  714SOL    HW1 2734   0.256   2.912   3.101 -0.0088 -0.5411 -0.5956
  714SOL    HW2 2735   0.230   2.981   2.969 -0.2620 -0.2902 -0.4166
  715SOL     OW 2736   1.236   2.528   2.590  0.6455  0.4382 -0.0177
  715SOL    HW1 2737   1.301   2.567   2.531  0.8859 -0.9855 -0.7450
  715SOL    HW2 2738   1.206   2.601   2.644  2.3775  1.2648 -0.1004
  716SOL     OW 2739   0.836   2.992   2.733  0.1250 -0.1419 -0.1212
  716SOL    HW1 2740   0.856   3.058   2.666  0.3471  0.3912  0.4542
  716SOL    HW2 2741   0.817   3.044   2.812 -1.8310 -0.6694 -0.1953
  717SOL     OW 2742   1.845   2.608   3.364  0.0050  0.0288 -0.7066
  717SOL    HW1 2743   1.833   2.702   3.356  0.5328  0.2018  0.3909
  717SOL    HW2 2744   1.789   2.571   3.296 -1.0044  1.0887 -0.4728
  718SOL     OW 2745   1.802   0.780   0.351  0.6515  0.5110 -0.5248
  718SOL    HW1 2746   1.756   0.856   0.386  0.5097 -0.1479  0.7724
  718SOL    HW2 2747   1.894   0.808   0.344  0.9466  0.2931  1.6542
  719SOL     OW 2748   0.706   3.892   2.559 -0.2422 -0.0376 -0.6700
  719SOL    HW1 2749   0.626   3.838   2.560 -0.2433 -0.0753  1.5612
  719SOL    HW2 2750   0.777   3.829   2.546 -0.4676 -0.0972 -1.7964
  720SOL     OW 2751   0.312   3.022   1.800  0.3172 -0.3759  0.3302
  720SOL    HW1 2752   0.344   2.947   1.749 -0.0943 -1.2364  1.2802
  720SOL    HW2 2753   0.371   3.027   1.875 -0.0372 -0.1680  0.6007
  721SOL     OW 2754   7.347   3.126   2.227 -0.5992  0.3832 -0.0078
  721SOL    HW1 2755   7.325   3.104   2.137  2.5163  0.9936 -1.0284
  721SOL    HW2 2756   7.404   3.056   2.256 -1.0419  0.5366  1.2953
  722SOL     OW 2757   1.434   4.695   1.907  0.9703 -0.0880 -0.2277
  722SOL    HW1 2758   1.466   4.702   1.997  4.6545  0.6205 -1.4474
  722SOL    HW2 2759   1.458   4.778   1.866 -3.9738  1.2487 -1.1062
  723SOL     OW 2760   0.170   2.187   1.723 -0.0159 -0.1563 -0.3673
  723SOL    HW1 2761   0.106   2.130   1.765  0.7939 -0.9836 -0.2454
  723SOL    HW2 2762   0.245   2.131   1.704  0.5702  0.7315 -0.7743
  724SOL     OW 2763   0.686   2.605   0.857 -0.0024  0.0262 -0.2720
  724SOL    HW1 2764   0.665   2.514   0.878 -0.6096  0.7315  2.6110
  724SOL    HW2 2765   0.768   2.600   0.809  0.0070 -2.0435 -0.1303
  725SOL     OW 2766   1.540   4.114   2.396  0.1244  0.1557 -0.3925
  725SOL    HW1 2767   1.469   4.101   2.333  0.5736 -0.4766 -0.7840
  725SOL    HW2 2768   1.603   4.171   2.351 -1.0399  2.4408  0.6947
  726SOL     OW 2769   0.142   4.147   2.215  0.0852 -0.3098  0.4073
  726SOL    HW1 2770   0.208   4.087   2.248  1.0333  0.2271 -0.4628
  726SOL    HW2 2771   0.164   4.231   2.253  1.2391  0.3344 -1.5461
  727SOL     OW 2772   0.071   0.640   3.150  0.1394 -0.3418  0.3793
  727SOL    HW1 2773   0.009   0.592   3.205 -0.0468 -0.0179  0.4524
  727SOL    HW2 2774   0.111   0.572   3.095 -1.0965 -0.4263 -0.4604
  728SOL     OW 2775   7.356   4.969   2.164  0.3604 -0.1448  0.2475
  728SOL    HW1 2776   7.379   5.061   2.172 -0.2893 -0.0634  1.3220
  728SOL    HW2 2777   7.425   4.922   2.211 -0.0529 -0.0958  0.9243
  729SOL     OW 2778   0.898   2.945   2.437 -0.0058 -0.0405 -0.3511
  729SOL    HW1 2779   0.818   2.893   2.436 -0.3434  0.4688 -1.6856
  729SOL    HW2 2780   0.949   2.909   2.510 -0.8650 -1.2557 -0.3201
  730SOL     OW 2781   7.154   2.604   1.460 -0.1884 -0.0207 -0.1378
  730SOL    HW1 2782   7.140   2.639   1.372  0.5143 -3.0609 -1.5740
  730SOL    HW2 2783   7.067   2.606   1.500 -0.5214  1.3697 -0.8544
  731SOL     OW 2784   7.235   3.396   1.620  0.0791  0.2957  0.1573
  731SOL    HW1 2785   7.153   3.353   1.595  0.3541 -0.2353  0.1410
  731SOL    HW2 2786   7.261   3.353   1.702  0.0578  0.8443  0.4589
  732SOL     OW 2787   2.491   3.320   2.171 -0.4904  0.8209  0.1762
  732SOL    HW1 2788   2.505   3.379   2.246  0.6991  1.0735 -0.2190
  732SOL    HW2 2789   2.572   3.327   2.120 -1.2248  0.5496 -1.0646
  733SOL     OW 2790   7.077   5.412   1.242  0.3244  0.1982  0.3326
  733SOL    HW1 2791   7.010   5.407   1.310  1.1489  1.4840  1.2759
  733SOL    HW2 2792   7.027   5.417   1.160 -0.6786 -1.2940  0.7965
  734SOL     OW 2793   6.627   1.400   2.355  0.7762  0.1926 -0.2228
  734SOL    HW1 2794   6.607   1.475   2.300 -1.6302  0.4098  0.8330
  734SOL    HW2 2795   6.687   1.347   2.302  1.6630  2.2652 -1.4289
  735SOL     OW 2796   6.956   3.612   0.531  0.1108  0.5526  0.0747
  735SOL    HW1 2797   6.968   3.693   0.581 -2.7664  2.0852 -1.4817
  735SOL    HW2 2798   6.875   3.575   0.564  0.2704 -0.5587 -0.7215
  736SOL     OW 2799   0.655   2.831   2.397 -0.3565 -0.3871  0.5566
  736SOL    HW1 2800   0.619   2.918   2.379 -2.1093 -1.1025  0.4225
  736SOL    HW2 2801   0.592   2.770   2.359  0.6947 -1.7432  0.8859
  737SOL     OW 2802   5.788   2.450   0.403  0.1858 -0.5991  0.6188
  737SOL    HW1 2803   5.862   2.391   0.414  0.7035  0.0308  0.5287
  737SOL    HW2 2804   5.711   2.392   0.402  0.8346 -1.5470 -1.9623
  738SOL     OW 2805   1.254   2.555   0.578 -0.0789  0.3308  0.3532
  738SOL    HW1 2806   1.328   2.613   0.563 -0.5320  1.3829  1.9157
  738SOL    HW2 2807   1.177   2.607   0.555 -0.3805 -0.6133 -0.8739
  739SOL     OW 2808   1.032   1.783   0.075  0.6572 -0.5004 -0.6022
  739SOL    HW1 2809   1.002   1.749   0.160 -0.8541 -0.0768 -0.9445
  739SOL    HW2 2810   1.120   1.816   0.093  0.8223 -1.4784  0.5301
  740SOL     OW 2811   1.148   4.472   3.051  0.0823 -0.2679  0.4831
  740SOL    HW1 2812   1.228   4.422   3.032 -0.5133 -0.5744 -1.4938
  740SOL    HW2 2813   1.175   4.564   3.044  0.1720 -0.3691 -0.8026
  741SOL     OW 2814   0.646   3.218   0.005 -0.1052 -0.3945  0.1653
  741SOL    HW1 2815   0.656   3.124  -0.005  3.3131 -0.0420 -0.7183
  741SOL    HW2 2816   0.665   3.254  -0.082 -0.5769  1.1729  0.6707
  742SOL     OW 2817   6.587   2.313   2.243 -0.1231 -0.4706 -0.0814
  742SOL    HW1 2818   6.505   2.340   2.201 -0.6961 -0.6523  0.8719
  742SOL    HW2 2819   6.583   2.217   2.242  0.4350 -0.4938 -0.6867
  743SOL     OW 2820   3.880   3.443   2.493 -0.4373  0.0713 -0.2451
  743SOL    HW1 2821   3.811   3.432   2.559 -0.1140  0.9042  0.2389
  743SOL    HW2 2822   3.833   3.440   2.409 -0.8790 -0.7508  0.0170
  744SOL     OW 2823   3.038   4.170   1.713  0.6179 -0.5681 -0.0817
  744SOL    HW1 2824   3.035   4.092   1.658  1.5816  0.3055 -1.4492
  744SOL    HW2 2825   2.955   4.170   1.761 -0.1450 -1.4878 -1.3620
  745SOL     OW 2826   3.159   3.370   2.768 -0.1294  0.2345 -0.1360
  745SOL    HW1 2827   3.093   3.329   2.824  1.3557  0.6148  2.0127
  745SOL    HW2 2828   3.234   3.311   2.771 -0.1353  0.0709 -2.1095
  746SOL     OW 2829   0.409   2.358   3.427 -0.4229  0.1220  0.0569
  746SOL    HW1 2830   0.418   2.451   3.407 -0.7289  0.0432 -0.4718
  746SOL    HW2 2831   0.421   2.314   3.343  1.3987 -0.4448  0.5589
  747SOL     OW 2832   0.994   3.793   3.310 -0.0341  0.1047 -0.2983
  747SOL    HW1 2833   0.938   3.721   3.279 -0.0068  0.5823 -1.5112
  747SOL    HW2 2834   1.081   3.754   3.315 -0.2564 -0.3279  0.4813
  748SOL     OW 2835   0.455   4.441   2.819 -0.1652  0.0118  0.5334
  748SOL    HW1 2836   0.541   4.483   2.823  0.9881 -2.2445  1.6891
  748SOL    HW2 2837   0.468   4.368   2.758 -1.5078  0.1191  0.1065
  749SOL     OW 2838   2.841   2.829   0.278 -0.0555  0.2107  0.0695
  749SOL    HW1 2839   2.910   2.839   0.343 -1.8406 -0.0414  2.1069
  749SOL    HW2 2840   2.870   2.755   0.224  2.3603  1.6193 -0.7174
  750SOL     OW 2841   6.104   0.307   1.667  0.1037  0.3371  0.3149
  750SOL    HW1 2842   6.182   0.275   1.622  0.5299 -1.0988  1.9457
  750SOL    HW2 2843   6.137   0.368   1.732 -0.4822  2.2199 -1.0887
  751SOL     OW 2844   0.071   4.775   2.965 -0.3969 -0.4491 -0.6387
  751SOL    HW1 2845   0.090   4.818   2.882  0.2854 -1.4221 -1.0037
  751SOL    HW2 2846  -0.023   4.759   2.962 -0.5550  0.4472 -0.7617
  752SOL     OW 2847   0.638   4.073   0.210 -0.3990 -0.6924 -0.5183
  752SOL    HW1 2848   0.664   4.064   0.119 -1.5236 -0.1288 -0.9108
  752SOL    HW2 2849   0.611   3.985   0.237 -2.1449 -0.4691 -1.4091
  753SOL     OW 2850   0.648   4.609   1.818 -0.0706  0.6357 -0.0978
  753SOL    HW1 2851   0.623   4.636   1.906 -0.2063 -1.5761  0.6095
  753SOL    HW2 2852   0.729   4.559   1.830  0.0880  0.5637 -1.2746
  754SOL     OW 2853   0.489   4.882   3.507 -0.4619  0.1101  0.1425
  754SOL    HW1 2854   0.493   4.947   3.436 -2.4733  0.2667  0.1227
  754SOL    HW2 2855   0.460   4.801   3.464  4.1448 -1.6203 -0.2770
  755SOL     OW 2856   7.059   3.963   2.488  0.1277  0.1558 -0.2977
  755SOL    HW1 2857   7.132   3.989   2.432  0.4124  0.8095  0.3601
  755SOL    HW2 2858   7.070   4.015   2.567  0.3222 -1.4703  0.8040
  756SOL     OW 2859   1.163   3.321   2.704  0.4986  0.7556 -0.5351
  756SOL    HW1 2860   1.108   3.335   2.781 -0.3429  1.4695 -1.2383
  756SOL    HW2 2861   1.241   3.374   2.721  0.9200 -0.1393  0.3990
  757SOL     OW 2862   1.089   4.124   1.470 -0.0019  0.0864  0.1504
  757SOL    HW1 2863   1.099   4.029   1.465 -0.3330  0.0836 -0.5794
  757SOL    HW2 2864   1.066   4.141   1.562  0.4740 -0.4909  0.3810
  758SOL     OW 2865   0.811   2.947   1.467 -0.6114  0.4673  0.8806
  758SOL    HW1 2866   0.757   2.890   1.411  0.2603 -0.4739  0.9680
  758SOL    HW2 2867   0.855   2.887   1.526  0.8092  1.1703  0.5735
  759SOL     OW 2868   0.931   4.589   0.237 -0.0781  0.6160  0.1070
  759SOL    HW1 2869   0.835   4.600   0.238 -0.3292 -1.1172  1.5298
  759SOL    HW2 2870   0.960   4.636   0.316  0.0021 -0.3521  0.6697
  760SOL     OW 2871   3.009   3.600   2.896 -0.7615 -0.1807  0.0324
  760SOL    HW1 2872   3.084   3.632   2.844 -1.3661  1.0753 -0.1237
  760SOL    HW2 2873   2.984   3.518   2.854  0.6455 -0.7173  0.2084
  761SOL     OW 2874   0.499   4.285   0.533  0.3598 -0.3878  0.2641
  761SOL    HW1 2875   0.504   4.371   0.576 -1.6296 -0.4953  0.7808
  761SOL    HW2 2876   0.555   4.294   0.456  0.9977  1.0355  0.8526
  762SOL     OW 2877   6.172   3.562   0.212 -0.1898 -0.1918 -0.2005
  762SOL    HW1 2878   6.077   3.573   0.220  0.0756  0.5610  3.1269
  762SOL    HW2 2879   6.185   3.467   0.216 -0.7192 -0.2256  1.8039
  763SOL     OW 2880   1.538   1.633   2.710  0.1817 -0.0051  0.0496
  763SOL    HW1 2881   1.566   1.682   2.633 -1.3999  0.0009 -0.5435
  763SOL    HW2 2882   1.604   1.564   2.720 -1.0362 -1.8290 -3.0739
  764SOL     OW 2883   7.058   2.289   3.049  0.6522  0.3234 -0.3196
  764SOL    HW1 2884   7.111   2.347   3.104 -0.3728  1.0018 -0.0121
  764SOL    HW2 2885   6.969   2.326   3.054 -0.2639 -1.7956  0.6561
  765SOL     OW 2886   1.375   3.427   2.850 -0.1109 -0.4162  0.2794
  765SOL    HW1 2887   1.437   3.380   2.905 -0.6579 -0.3573  0.9569
  765SOL    HW2 2888   1.405   3.518   2.851  0.0288 -0.4626  0.2667
  766SOL     OW 2889   0.098   2.422   1.615  0.0316  0.1550 -0.2398
  766SOL    HW1 2890   0.164   2.482   1.650 -0.7663  0.2930  1.1283
  766SOL    HW2 2891   0.115   2.339   1.661 -0.0862 -0.1111 -0.6737
  767SOL     OW 2892   1.527   3.639   0.671 -0.5193  0.9982  0.0357
  767SOL    HW1 2893   1.594   3.690   0.626 -0.7564  1.4331  0.1772
  767SOL    HW2 2894   1.515   3.683   0.755  0.9343 -0.5970  1.1680
  768SOL     OW 2895   2.383   3.389   0.655 -0.1823 -0.0007 -0.2503
  768SOL    HW1 2896   2.397   3.422   0.566  0.7905  1.1358  0.2820
  768SOL    HW2 2897   2.334   3.459   0.698  1.3255  0.5034  0.7199
  769SOL     OW 2898   2.690   0.262   1.730 -0.0862 -0.1991 -0.0536
  769SOL    HW1 2899   2.749   0.324   1.773  0.6349  0.0649 -1.3799
  769SOL    HW2 2900   2.663   0.306   1.649 -1.8070 -0.4776  0.3211
  770SOL     OW 2901   0.935   2.727   3.307 -0.3562  0.4588  0.3615
  770SOL    HW1 2902   1.010   2.676   3.276 -0.5999 -0.1753  0.7840
  770SOL    HW2 2903   0.924   2.795   3.241 -0.4308 -0.4299 -0.5792
  771SOL     OW 2904   0.582   1.281   3.371  0.5087  0.0670  0.1402
  771SOL    HW1 2905   0.627   1.361   3.398  1.6417 -0.2728 -0.6428
  771SOL    HW2 2906   0.649   1.213   3.379  1.1253 -0.0183 -3.8264
  772SOL     OW 2907   1.226   3.226   0.157 -0.3945 -0.0158 -0.1459
  772SOL    HW1 2908   1.171   3.206   0.081 -1.6875 -0.3916  0.8546
  772SOL    HW2 2909   1.308   3.182   0.139 -1.6651 -2.6117 -0.0191
  773SOL     OW 2910   1.474   1.964   1.239  0.0512 -0.0148 -0.0933
  773SOL    HW1 2911   1.566   1.986   1.220 -0.1367  0.4552 -0.4821
  773SOL    HW2 2912   1.473   1.944   1.333  0.1026  2.5120  0.5176
  774SOL     OW 2913   0.053   5.266   0.691  0.3267  0.2245 -0.1535
  774SOL    HW1 2914   0.053   5.228   0.779  1.1731  0.5878  0.0134
  774SOL    HW2 2915   0.141   5.250   0.658  0.6764  1.8688 -0.1327
  775SOL     OW 2916   0.675   2.933   1.863  0.4904 -0.5144  0.6098
  775SOL    HW1 2917   0.697   2.855   1.812  1.6723  0.8463 -1.1073
  775SOL    HW2 2918   0.755   2.986   1.861  0.2618  0.0396  3.1650
  776SOL     OW 2919   0.518   3.713   0.897 -0.0474 -0.4598  0.4912
  776SOL    HW1 2920   0.452   3.693   0.964  0.2426 -2.7703  0.1645
  776SOL    HW2 2921   0.557   3.629   0.876  3.4747  0.8629  1.0981
  777SOL     OW 2922   0.479   2.802   0.820 -0.1998  0.2078  0.0642
  777SOL    HW1 2923   0.534   2.724   0.817 -0.2687  0.0015  2.3411
  777SOL    HW2 2924   0.488   2.841   0.733  2.5879 -0.4785 -0.0518
  778SOL     OW 2925   1.933   2.538   0.617  0.0379  0.1024 -0.0850
  778SOL    HW1 2926   1.976   2.568   0.537  0.4553  0.8166  0.3935
  778SOL    HW2 2927   1.865   2.478   0.587  1.3392 -1.0313 -0.8636
  779SOL     OW 2928   1.476   2.643   1.083  0.5041 -0.0548 -0.3770
  779SOL    HW1 2929   1.449   2.711   1.144  1.5208  1.2215 -1.2974
  779SOL    HW2 2930   1.394   2.598   1.061 -0.1723  0.7672  0.3551
  780SOL     OW 2931   1.971   2.051   1.405  0.4376  0.2733  0.3331
  780SOL    HW1 2932   2.065   2.069   1.402 -0.1350  3.7734 -0.0861
  780SOL    HW2 2933   1.929   2.137   1.403 -2.8711 -1.1705 -2.3301
  781SOL     OW 2934   6.820   3.448   3.265  0.0955 -0.1062  0.0899
  781SOL    HW1 2935   6.863   3.363   3.278 -2.2357 -1.3829 -0.0505
  781SOL    HW2 2936   6.841   3.471   3.175 -0.4463 -1.2839 -0.3602
  782SOL     OW 2937   0.587   5.115   2.816  0.2085  0.1147  0.9968
  782SOL    HW1 2938   0.535   5.159   2.882 -0.4151 -0.5754  0.9774
  782SOL    HW2 2939   0.660   5.076   2.864 -0.2360 -0.3723  1.2889
  783SOL     OW 2940   0.351   1.674   1.626 -0.3180  0.4696 -0.1067
  783SOL    HW1 2941   0.317   1.585   1.629 -1.4365  0.8602 -0.5619
  783SOL    HW2 2942   0.416   1.673   1.555  1.1949 -0.4575  1.2441
  784SOL     OW 2943   7.062   1.571   3.020 -0.3388 -0.0759  0.2620
  784SOL    HW1 2944   6.971   1.568   2.990 -0.5334  0.2390  0.8038
  784SOL    HW2 2945   7.103   1.638   2.965 -0.2102 -0.7952 -0.5495
  785SOL     OW 2946   1.813   3.165   2.352  0.0583 -0.2795  0.1190
  785SOL    HW1 2947   1.802   3.259   2.364  0.4608 -0.2218  0.0586
  785SOL    HW2 2948   1.782   3.148   2.263 -1.7092 -0.4987  0.7320
  786SOL     OW 2949   0.465   1.914   3.307 -0.4174  0.3153 -0.2310
  786SOL    HW1 2950   0.548   1.867   3.296 -0.9567 -0.5888 -0.5753
  786SOL    HW2 2951   0.450   1.956   3.223 -2.2574 -2.8229 -1.6337
  787SOL     OW 2952   1.256   5.006   3.322 -0.3108 -0.2010 -0.2499
  787SOL    HW1 2953   1.212   4.998   3.406  0.9024  4.0194  1.0374
  787SOL    HW2 2954   1.349   4.996   3.343 -0.0923 -0.6849 -1.3805
  788SOL     OW 2955   1.394   2.397   1.303 -0.4785 -0.3060 -0.4262
  788SOL    HW1 2956   1.350   2.333   1.358 -1.1211 -0.4206 -1.0611
  788SOL    HW2 2957   1.433   2.459   1.365  1.0286 -1.8307  0.2409
  789SOL     OW 2958   7.169   3.013   2.036 -0.3882 -0.3655  0.0275
  789SOL    HW1 2959   7.209   2.931   2.066  0.6262  0.1929  0.2525
  789SOL    HW2 2960   7.118   3.044   2.110  1.4307  0.5815  0.9470
  790SOL     OW 2961   0.725   2.828   1.029 -0.7181  0.5929 -0.2794
  790SOL    HW1 2962   0.698   2.834   1.120 -0.1325 -0.5963 -0.0008
  790SOL    HW2 2963   0.731   2.734   1.012  0.7961  0.7874 -1.0316
  791SOL     OW 2964   6.196   2.854   2.676 -0.3202 -0.1673  0.4701
  791SOL    HW1 2965   6.269   2.835   2.617 -0.0436 -1.5498  1.2209
  791SOL    HW2 2966   6.223   2.933   2.723 -0.0966  0.3553 -0.5098
  792SOL     OW 2967   0.634   0.712   2.328 -0.4300 -0.1055  0.1502
  792SOL    HW1 2968   0.720   0.694   2.368 -0.3968  0.5574  0.4000
  792SOL    HW2 2969   0.629   0.652   2.254  0.4110  0.0858 -0.0820
  793SOL     OW 2970   2.389   3.778   0.623  0.2273  0.4697  0.7765
  793SOL    HW1 2971   2.429   3.841   0.683 -0.8187  1.7722  0.1660
  793SOL    HW2 2972   2.445   3.779   0.546  1.1532 -0.6399  1.4187
  794SOL     OW 2973   1.550   2.900   1.903 -0.4454  0.1550  0.4553
  794SOL    HW1 2974   1.601   2.938   1.832  2.2215 -1.6385  1.2744
  794SOL    HW2 2975   1.505   2.826   1.864  1.5125 -1.2115  0.6640
  795SOL     OW 2976   6.761   3.110   1.897 -0.4970  0.3094  0.5313
  795SOL    HW1 2977   6.706   3.034   1.881  1.2567 -1.2793  1.6620
  795SOL    HW2 2978   6.749   3.166   1.820 -1.5373 -1.2702 -0.4981
  796SOL     OW 2979   7.110   5.277   3.158 -0.0260  0.5487 -0.6207
  796SOL    HW1 2980   7.202   5.300   3.171 -0.2660  1.2419 -0.0698
  796SOL    HW2 2981   7.097   5.281   3.063  0.5024  0.4854 -0.6964
  797SOL     OW 2982   0.651   4.013   0.542  0.3853 -0.1062  0.0445
  797SOL    HW1 2983   0.628   3.953   0.471 -1.0947  0.5165 -0.0341
  797SOL    HW2 2984   0.567   4.039   0.580  0.6929  4.0185 -1.6369
  798SOL     OW 2985   7.084   3.508   2.592 -0.2190  0.1754  0.7488
  798SOL    HW1 2986   7.100   3.504   2.686 -1.3581  2.1617  1.0873
  798SOL    HW2 2987   7.150   3.569   2.559  0.5026 -0.9061  0.1575
  799SOL     OW 2988   0.052   1.162   0.225  0.4321  0.3627  0.2631
  799SOL    HW1 2989  -0.006   1.097   0.264 -1.4766  1.2633 -0.9045
  799SOL    HW2 2990   0.068   1.226   0.295  0.5724 -0.2301  0.7800
  800SOL     OW 2991   6.869   4.782   0.558  0.2656 -0.1966  0.1346
  800SOL    HW1 2992   6.892   4.782   0.651  1.5684 -1.4544 -0.1557
  800SOL    HW2 2993   6.923   4.850   0.519  0.7572 -0.6084  0.0836
  801SOL     OW 2994   2.050   1.698   0.492 -0.3353 -0.2274  0.2760
  801SOL    HW1 2995   2.015   1.715   0.404 -0.0746 -1.0395  0.0056
  801SOL    HW2 2996   2.121   1.635   0.478 -0.7390 -0.9031  1.1361
  802SOL     OW 2997   0.549   2.565   0.498  0.1952  0.5081 -0.3036
  802SOL    HW1 2998   0.467   2.546   0.545  0.2832  0.6565 -0.0929
  802SOL    HW2 2999   0.582   2.478   0.473  0.4421  0.3937  0.4039
  803SOL     OW 3000   1.710   5.160   2.808 -0.0801  0.4923 -0.3842
  803SOL    HW1 3001   1.719   5.066   2.796 -2.3428  0.1221  0.3836
  803SOL    HW2 3002   1.623   5.181   2.775  0.2749  2.2817 -0.3013
  804SOL     OW 3003   2.651   0.890   2.154  0.3613  0.2390 -0.6642
  804SOL    HW1 3004   2.710   0.857   2.086 -0.6391 -0.2112 -1.3516
  804SOL    HW2 3005   2.684   0.852   2.235  2.1280  1.5259 -0.7304
  805SOL     OW 3006   1.043   3.384   1.763 -0.5214 -0.8196 -0.1384
  805SOL    HW1 3007   1.030   3.432   1.681  0.1390  1.5923  1.0764
  805SOL    HW2 3008   0.987   3.429   1.826 -1.0603 -2.6666  0.7768
  806SOL     OW 3009   1.486   0.564   1.093  0.9117  0.1480 -0.0221
  806SOL    HW1 3010   1.543   0.592   1.165  1.8449 -0.5819 -0.4497
  806SOL    HW2 3011   1.497   0.469   1.090  1.8065  0.2647 -1.8464
  807SOL     OW 3012   0.992   0.141   0.670 -0.2407 -0.4625 -0.3342
  807SOL    HW1 3013   1.057   0.209   0.689 -1.2303  0.2318  0.7472
  807SOL    HW2 3014   0.916   0.166   0.723 -1.2255 -1.5047 -1.2098
  808SOL     OW 3015   2.207   2.720   0.719  0.0110  0.4056  0.1441
  808SOL    HW1 3016   2.238   2.635   0.688 -0.5539 -0.7353  2.5061
  808SOL    HW2 3017   2.123   2.701   0.761 -1.6595  2.6528 -1.8716
  809SOL     OW 3018   1.703   5.193   3.306  0.6163  0.3067 -0.4854
  809SOL    HW1 3019   1.615   5.171   3.335  0.5052  0.7835 -0.4500
  809SOL    HW2 3020   1.714   5.146   3.223  0.3628  0.1836 -0.4511
  810SOL     OW 3021   7.401   4.490   3.391  1.0500 -0.1295  0.1554
  810SOL    HW1 3022   7.426   4.477   3.483  0.5984  0.1797  0.3246
  810SOL    HW2 3023   7.482   4.477   3.343  1.1260 -1.1459  0.5188
  811SOL     OW 3024   2.899   3.547   0.760  0.4335  0.3231 -0.4881
  811SOL    HW1 3025   2.815   3.561   0.804 -0.1823 -1.0048 -1.1885
  811SOL    HW2 3026   2.884   3.571   0.669  1.7272  3.1214 -0.0703
  812SOL     OW 3027   1.456   2.660   1.880 -0.0626  0.3921 -0.0958
  812SOL    HW1 3028   1.395   2.600   1.836 -0.3579 -0.5923  1.5885
  812SOL    HW2 3029   1.543   2.628   1.854 -0.2322 -0.0499 -0.1275
  813SOL     OW 3030   6.057   0.244   1.032  0.0098 -0.0215 -0.5106
  813SOL    HW1 3031   5.963   0.228   1.045  0.3693 -1.3980  0.6739
  813SOL    HW2 3032   6.063   0.282   0.944 -1.4610 -1.8941 -1.4883
  814SOL     OW 3033   0.400   0.390   1.961  0.3364  0.0456 -0.1538
  814SOL    HW1 3034   0.389   0.364   1.869  0.5417 -1.5817  0.2396
  814SOL    HW2 3035   0.403   0.485   1.959  0.8648  0.0332 -1.8965
  815SOL     OW 3036   0.767   4.639   1.120  0.1931  0.2293  0.3414
  815SOL    HW1 3037   0.817   4.681   1.050  0.0045 -1.0809 -0.6199
  815SOL    HW2 3038   0.789   4.547   1.114 -0.2154  0.0144  1.7181
  816SOL     OW 3039   1.142   4.493   1.736 -0.6833 -0.1478  0.3103
  816SOL    HW1 3040   1.074   4.430   1.711 -1.6718  1.2684 -0.7097
  816SOL    HW2 3041   1.220   4.464   1.689 -0.7572 -1.3551  0.8917
  817SOL     OW 3042   4.818   4.755   2.768  0.1533 -0.0973  0.0974
  817SOL    HW1 3043   4.859   4.731   2.684 -0.5422 -1.5813  0.1641
  817SOL    HW2 3044   4.801   4.672   2.811  0.5825  0.6458  1.7850
  818SOL     OW 3045   0.984   1.279   2.277  0.0862  0.2211 -0.2198
  818SOL    HW1 3046   0.989   1.203   2.336  0.4091  0.2335 -0.2284
  818SOL    HW2 3047   0.982   1.354   2.335  0.5718  0.2409 -0.2251
  819SOL     OW 3048   1.655   4.435   3.043  0.4370 -0.2722 -0.2361
  819SOL    HW1 3049   1.685   4.471   3.126  0.6402 -3.0216  0.9815
  819SOL    HW2 3050   1.720   4.368   3.021 -2.2714 -3.2585  0.1527
  820SOL     OW 3051   1.736   3.761   0.477  0.4405  0.5533  0.1309
  820SOL    HW1 3052   1.701   3.818   0.408  0.2784 -0.7969 -0.9434
  820SOL    HW2 3053   1.753   3.677   0.433 -1.8193 -1.1189  2.1699
  821SOL     OW 3054   0.645   0.184   0.470  0.7699 -0.5512 -0.3477
  821SOL    HW1 3055   0.617   0.095   0.449 -2.1432  0.0514  0.5622
  821SOL    HW2 3056   0.566   0.236   0.465  1.0737  0.9432  4.7444
  822SOL     OW 3057   2.468   4.171   0.321 -0.1928  0.5955 -0.4137
  822SOL    HW1 3058   2.461   4.093   0.265 -1.8852  1.3540 -1.3524
  822SOL    HW2 3059   2.405   4.155   0.391 -0.2338  0.9336 -0.3726
  823SOL     OW 3060   7.358   3.219   0.200  0.6267 -0.1556  0.0224
  823SOL    HW1 3061   7.311   3.250   0.123 -2.5418 -1.5912  1.2008
  823SOL    HW2 3062   7.396   3.298   0.239 -1.4896  1.2569 -0.6480
  824SOL     OW 3063   7.001   2.797   3.197 -0.0635  0.1840  0.6578
  824SOL    HW1 3064   6.983   2.829   3.109 -3.6906 -0.9875  0.8151
  824SOL    HW2 3065   7.011   2.876   3.250  0.5951  0.9051 -0.5103
  825SOL     OW 3066   5.960   4.884   1.803  0.1402  0.0469 -0.0804
  825SOL    HW1 3067   5.985   4.792   1.810  1.5723  0.5367  2.2500
  825SOL    HW2 3068   5.926   4.906   1.890  0.8817  2.0075 -0.2513
  826SOL     OW 3069   0.522   4.138   2.434 -0.0906 -0.1772  0.4548
  826SOL    HW1 3070   0.565   4.060   2.467  0.9755 -0.2656 -1.0400
  826SOL    HW2 3071   0.511   4.122   2.340 -1.3533  0.7848  0.4176
  827SOL     OW 3072   6.922   4.573   3.267  0.2389  0.4780  0.0750
  827SOL    HW1 3073   6.913   4.511   3.195  0.2924  1.2001 -0.5695
  827SOL    HW2 3074   6.878   4.531   3.341 -1.7158  0.6031 -0.9382
  828SOL     OW 3075   2.093   4.435   1.357  0.0316 -0.2146  0.0555
  828SOL    HW1 3076   2.139   4.411   1.438  1.1126 -0.3055 -0.5629
  828SOL    HW2 3077   2.160   4.478   1.304 -0.6078 -0.3518 -0.8773
  829SOL     OW 3078   1.440   1.057   0.866 -0.0715  0.3393  0.0084
  829SOL    HW1 3079   1.365   1.011   0.827 -0.3263  0.7968 -0.0462
  829SOL    HW2 3080   1.498   0.987   0.894  0.0097 -0.0143 -0.9776
  830SOL     OW 3081   2.091   2.088   0.662  0.3098 -0.0230  0.5272
  830SOL    HW1 3082   2.136   2.164   0.699  0.1440  0.8663 -1.0137
  830SOL    HW2 3083   2.010   2.081   0.713 -0.1132  1.4322  0.1099
  831SOL     OW 3084   2.489   1.430   0.087  0.0852  0.5648  0.4602
  831SOL    HW1 3085   2.468   1.343   0.121  1.3383  0.1141  0.1393
  831SOL    HW2 3086   2.486   1.488   0.164 -1.9410  0.4877  0.4732
  832SOL     OW 3087   2.027   4.483   1.708  0.6088 -0.0024  0.1516
  832SOL    HW1 3088   2.095   4.457   1.646  1.7524  4.0222 -0.5614
  832SOL    HW2 3089   2.068   4.473   1.794  0.6740 -1.2420 -0.0088
  833SOL     OW 3090   1.910   5.348   2.784  0.0673 -0.7334 -1.0488
  833SOL    HW1 3091   1.841   5.282   2.788  0.4490 -1.1507 -1.1327
  833SOL    HW2 3092   1.959   5.326   2.704  0.0917 -0.2351 -1.1731
  834SOL     OW 3093   0.050   0.219   0.751 -0.2641 -0.5244  0.8752
  834SOL    HW1 3094   0.018   0.130   0.735 -1.3521 -0.3788  2.1145
  834SOL    HW2 3095   0.139   0.218   0.716 -1.0333 -1.4077 -1.2857
  835SOL     OW 3096   1.049   4.637   2.724  0.3895 -0.3465  0.0870
  835SOL    HW1 3097   1.102   4.686   2.788 -0.7651  0.4611  0.4492
  835SOL    HW2 3098   0.991   4.583   2.777 -2.8339  2.6516 -0.0539
  836SOL     OW 3099   1.725   0.446   0.086  0.6209 -0.0769  0.5830
  836SOL    HW1 3100   1.820   0.449   0.074  0.5785 -2.5716 -1.2952
  836SOL    HW2 3101   1.713   0.415   0.176  1.7907 -2.9532 -0.1216
  837SOL     OW 3102   6.622   1.095   1.756  0.2378 -0.0262 -0.3057
  837SOL    HW1 3103   6.684   1.153   1.712 -0.9081  1.4586 -0.0380
  837SOL    HW2 3104   6.622   1.125   1.847 -2.2184  1.2834 -0.6641
  838SOL     OW 3105   0.886   0.038   3.077  0.1606 -0.0346  0.3251
  838SOL    HW1 3106   0.967   0.076   3.042  1.1928 -1.8383  0.6672
  838SOL    HW2 3107   0.818   0.102   3.053  1.5111  1.0454 -0.8391
  839SOL     OW 3108   1.039   4.612   1.256 -0.1480 -0.0047 -0.6297
  839SOL    HW1 3109   1.098   4.602   1.181  0.2524  1.6266 -0.5794
  839SOL    HW2 3110   1.064   4.543   1.317  1.5104  0.4666 -0.7460
  840SOL     OW 3111   3.811   4.579   0.311  0.9899 -0.5919  0.3345
  840SOL    HW1 3112   3.868   4.514   0.351  1.2771 -0.9423 -0.6266
  840SOL    HW2 3113   3.868   4.629   0.253  0.7268  0.3919  0.8948
  841SOL     OW 3114   0.017   4.419   2.941 -0.1620 -0.3439  0.3033
  841SOL    HW1 3115   0.041   4.397   3.032 -0.1681  1.3983  0.7605
  841SOL    HW2 3116  -0.078   4.408   2.939 -0.2942  0.6220  0.8194
  842SOL     OW 3117   1.219   3.619   0.148 -0.2942  0.6847 -0.3250
  842SOL    HW1 3118   1.222   3.523   0.153 -2.0371  0.3504 -3.3518
  842SOL    HW2 3119   1.284   3.648   0.213 -0.7091 -2.4469  1.7472
  843SOL     OW 3120   1.442   5.078   2.039 -0.4785  0.1449  0.3575
  843SOL    HW1 3121   1.472   5.007   2.096 -0.0586 -0.1993 -0.2745
  843SOL    HW2 3122   1.429   5.152   2.098 -1.3152 -0.5554  1.0931
  844SOL     OW 3123   2.986   2.758   0.826 -0.4116  0.4649 -0.2985
  844SOL    HW1 3124   2.966   2.850   0.807  1.0286  1.0558  0.8496
  844SOL    HW2 3125   2.900   2.715   0.825 -1.1600  1.8790 -0.5186
  845SOL     OW 3126   0.716   1.436   0.525 -0.0362 -0.1977 -0.1067
  845SOL    HW1 3127   0.770   1.390   0.461 -0.2589 -1.5133  0.6117
  845SOL    HW2 3128   0.633   1.453   0.479  0.9418  1.9587 -1.2600
  846SOL     OW 3129   7.141   5.117   0.903 -0.6378  0.1115  0.0679
  846SOL    HW1 3130   7.171   5.126   0.993 -1.4983 -0.8064  0.4740
  846SOL    HW2 3131   7.062   5.170   0.898 -0.1855  0.7589 -0.3679
  847SOL     OW 3132   0.647   0.127   0.044  0.2235  0.2827 -0.7680
  847SOL    HW1 3133   0.590   0.091   0.112  0.3583  1.1027 -0.2079
  847SOL    HW2 3134   0.735   0.100   0.070  0.1956 -0.0990 -1.0660
  848SOL     OW 3135   0.643   3.995   1.089  0.2046  0.6311 -0.2740
  848SOL    HW1 3136   0.565   4.009   1.143  0.5013  0.8418  0.1067
  848SOL    HW2 3137   0.715   3.993   1.151  0.3762 -0.8489 -0.5046
  849SOL     OW 3138   6.891   4.700   2.279  0.7792 -0.2170  0.0680
  849SOL    HW1 3139   6.953   4.683   2.208  0.6256  2.4930 -0.8346
  849SOL    HW2 3140   6.805   4.696   2.238  0.5326 -0.9436  0.6392
  850SOL     OW 3141   2.597   0.402   2.648 -0.3393 -0.3353  0.1535
  850SOL    HW1 3142   2.657   0.373   2.716 -0.9022  0.5432  1.0539
  850SOL    HW2 3143   2.569   0.489   2.677  0.6054  0.7595 -1.9793
  851SOL     OW 3144   2.918   3.541   2.113 -0.3114  0.2294  0.5067
  851SOL    HW1 3145   2.991   3.483   2.093  0.1543  0.0679  2.4166
  851SOL    HW2 3146   2.929   3.615   2.053  0.9913 -0.1456  0.2459
  852SOL     OW 3147   1.040   4.935   0.370  0.2992  0.4507 -0.1525
  852SOL    HW1 3148   0.994   4.855   0.396  1.0788  0.0466  0.0082
  852SOL    HW2 3149   1.108   4.946   0.436  1.7136 -0.0789 -1.4466
  853SOL     OW 3150   2.348   3.645   1.850 -0.1211  0.0010  0.2533
  853SOL    HW1 3151   2.317   3.678   1.766  1.6066  0.1470 -0.3790
  853SOL    HW2 3152   2.419   3.705   1.874 -1.7446  1.0673  2.7440
  854SOL     OW 3153   0.301   2.458   0.616  0.5964 -0.2617  0.4623
  854SOL    HW1 3154   0.270   2.416   0.696  1.2086 -2.6262 -0.4572
  854SOL    HW2 3155   0.228   2.451   0.554  0.6073  0.3318  0.3668
  855SOL     OW 3156   7.180   4.776   1.097 -0.5434 -0.2599 -0.1940
  855SOL    HW1 3157   7.247   4.712   1.121 -0.3837 -0.7849 -1.8787
  855SOL    HW2 3158   7.205   4.804   1.009 -0.7435  1.9655  0.4018
  856SOL     OW 3159   7.304   5.136   0.083  0.2115  0.4210 -0.6131
  856SOL    HW1 3160   7.240   5.064   0.084 -0.5618  1.1038 -0.2062
  856SOL    HW2 3161   7.252   5.215   0.070  0.7746  1.1707  1.3428
  857SOL     OW 3162   0.980   4.091   1.722  0.7674 -0.1878 -0.2359
  857SOL    HW1 3163   0.977   4.046   1.806 -0.6776  0.4668  0.0876
  857SOL    HW2 3164   0.908   4.154   1.725  0.1861 -0.6783 -2.2587
  858SOL     OW 3165   1.328   0.470   1.672 -0.9756  0.1561  0.1961
  858SOL    HW1 3166   1.346   0.559   1.702  0.5173 -0.1643  0.3626
  858SOL    HW2 3167   1.347   0.473   1.578  0.9517 -0.3971  0.5284
  859SOL     OW 3168   0.938   3.679   0.405 -0.2768 -0.1390 -0.5149
  859SOL    HW1 3169   0.892   3.670   0.488  0.6845 -1.7422 -0.1013
  859SOL    HW2 3170   0.924   3.770   0.379  0.0560  0.6476  1.8037
  860SOL     OW 3171   6.774   3.342   0.058 -0.6190  0.7103 -0.4800
  860SOL    HW1 3172   6.780   3.369   0.150 -1.2033 -1.4334  0.2603
  860SOL    HW2 3173   6.862   3.312   0.036 -0.5618  0.8945 -0.5003
  861SOL     OW 3174   2.473   2.097   0.422 -0.1753 -0.1060 -0.2852
  861SOL    HW1 3175   2.480   2.118   0.329  1.5479  0.1350 -0.1351
  861SOL    HW2 3176   2.406   2.157   0.455  0.1340  0.7218 -1.1204
  862SOL     OW 3177   1.482   2.121   2.930  0.6598 -0.6319  0.3184
  862SOL    HW1 3178   1.491   2.061   2.856 -2.2818  0.1572 -0.8363
  862SOL    HW2 3179   1.454   2.204   2.891  0.0405  0.1197  2.2361
  863SOL     OW 3180   1.794   3.567   0.249  0.2479 -0.2913 -0.0055
  863SOL    HW1 3181   1.753   3.486   0.279  0.6011 -0.5732 -0.2798
  863SOL    HW2 3182   1.727   3.607   0.192 -0.6688  0.5593  1.6056
  864SOL     OW 3183   6.012   5.277   1.159  0.0530  0.2444  0.3468
  864SOL    HW1 3184   5.982   5.212   1.096  1.0156  1.4267 -1.4242
  864SOL    HW2 3185   6.107   5.277   1.151  0.2146  0.3469  1.9154
  865SOL     OW 3186   7.079   2.010   2.958  0.4364  0.0448  0.5893
  865SOL    HW1 3187   7.165   2.032   2.994 -0.9026  2.2207  2.7798
  865SOL    HW2 3188   7.027   2.090   2.969 -2.8764 -2.1287  2.7531
  866SOL     OW 3189   0.049   0.294   2.626 -0.4566  0.0896 -0.1901
  866SOL    HW1 3190   0.109   0.360   2.661 -0.8076 -0.6872  2.0252
  866SOL    HW2 3191  -0.037   0.321   2.657 -0.9288 -0.1795 -1.2176
  867SOL     OW 3192   0.191   2.947   0.862 -0.3425 -0.2251  0.4481
  867SOL    HW1 3193   0.204   3.023   0.919 -0.1502  0.1592 -0.0934
  867SOL    HW2 3194   0.279   2.913   0.847 -0.5351 -1.3178  1.6898
  868SOL     OW 3195   6.824   2.829   3.466 -0.0024  0.0673  0.2971
  868SOL    HW1 3196   6.823   2.918   3.502 -3.8214  0.6078 -0.7291
  868SOL    HW2 3197   6.916   2.813   3.445  1.0211  3.2244  1.7440
  869SOL     OW 3198   6.370   5.346   1.221 -0.1898  0.0119 -0.3058
  869SOL    HW1 3199   6.346   5.437   1.204  1.7356  0.2223 -2.3690
  869SOL    HW2 3200   6.436   5.351   1.290  0.1594  0.2195 -0.6531
  870SOL     OW 3201   2.103   3.856   0.457 -0.0869  0.0577 -0.1356
  870SOL    HW1 3202   2.061   3.827   0.376  2.1408  0.2083 -1.4391
  870SOL    HW2 3203   2.166   3.787   0.478  2.1068  1.7286 -0.7689
  871SOL     OW 3204   7.248   2.857   0.257 -0.0202 -0.2328 -0.1656
  871SOL    HW1 3205   7.176   2.874   0.318 -0.0654  1.9813 -0.7342
  871SOL    HW2 3206   7.327   2.882   0.306  0.3543 -2.0994  0.2537
  872SOL     OW 3207   1.762   4.011   0.824 -0.1247 -0.4289 -0.0853
  872SOL    HW1 3208   1.713   4.036   0.746  1.2287  0.1868 -0.7803
  872SOL    HW2 3209   1.708   4.042   0.897 -0.5821  0.6035 -0.8239
  873SOL     OW 3210   1.582   0.074   0.907 -0.1920 -0.2434 -0.2224
  873SOL    HW1 3211   1.493   0.042   0.891 -0.0505 -0.0362 -1.4942
  873SOL    HW2 3212   1.620   0.008   0.965 -0.8516 -0.8543 -0.4638
  874SOL     OW 3213   7.235   4.689   0.215 -0.4424  0.2808 -0.5924
  874SOL    HW1 3214   7.263   4.750   0.283  2.8242  1.7863 -3.0042
  874SOL    HW2 3215   7.154   4.726   0.181 -0.6542  1.0106  0.6568
  875SOL     OW 3216   5.299   4.581   1.714 -0.4227 -0.2648 -0.0876
  875SOL    HW1 3217   5.279   4.669   1.745 -1.7400 -0.0564 -1.4537
  875SOL    HW2 3218   5.217   4.548   1.677 -0.3164 -2.5711  1.4803
  876SOL     OW 3219   1.040   0.473   1.946  0.1249  0.3197 -0.0504
  876SOL    HW1 3220   1.039   0.563   1.912  1.4372  0.1116 -0.7074
  876SOL    HW2 3221   0.955   0.437   1.921 -0.2811  1.2673 -0.0737
  877SOL     OW 3222   7.148   4.622   2.558 -0.0391 -0.0747 -0.5891
  877SOL    HW1 3223   7.214   4.555   2.574  0.6275  0.5258 -0.8186
  877SOL    HW2 3224   7.141   4.626   2.462  0.7151  0.9466 -0.6095
  878SOL     OW 3225   1.546   4.969   1.800  0.6522 -0.5088 -0.2493
  878SOL    HW1 3226   1.614   5.029   1.770  1.1638 -1.8255 -1.8830
  878SOL    HW2 3227   1.507   5.012   1.876  2.8390  0.6008  0.3083
  879SOL     OW 3228   1.120   3.095   0.556  0.1928  0.2226  0.4071
  879SOL    HW1 3229   1.071   3.119   0.477 -0.8398  1.0260  1.2624
  879SOL    HW2 3230   1.057   3.106   0.628  0.6853 -1.8661  1.2198
  880SOL     OW 3231   1.775   4.807   3.248  0.3098  0.0662 -0.0222
  880SOL    HW1 3232   1.687   4.843   3.237 -1.4294 -3.9761 -1.0503
  880SOL    HW2 3233   1.810   4.802   3.159  0.4682 -0.7765  0.0809
  881SOL     OW 3234   0.281   3.648   3.158 -0.0278 -0.3422 -0.3323
  881SOL    HW1 3235   0.238   3.733   3.165  1.9633  0.8383 -1.4873
  881SOL    HW2 3236   0.213   3.589   3.127 -1.0856  1.1934 -1.0434
  882SOL     OW 3237   7.210   4.810   2.005 -0.2157 -0.4867 -0.2531
  882SOL    HW1 3238   7.130   4.860   1.987  0.0808  0.0945  0.0079
  882SOL    HW2 3239   7.271   4.874   2.041  0.4675 -0.8665 -0.7033
  883SOL     OW 3240   0.162   3.368   0.601 -0.6320  0.2941 -0.5946
  883SOL    HW1 3241   0.122   3.390   0.517 -2.4584  1.6452  0.5352
  883SOL    HW2 3242   0.092   3.327   0.652 -0.2532  1.4520  0.9785
  884SOL     OW 3243   1.390   4.432   0.512 -0.0596 -0.4491 -0.4590
  884SOL    HW1 3244   1.307   4.406   0.470 -0.2132 -0.2966 -0.2516
  884SOL    HW2 3245   1.394   4.527   0.499 -0.8086 -0.1699  1.1009
  885SOL     OW 3246   1.427   4.442   1.865 -0.2865  0.4240 -0.4604
  885SOL    HW1 3247   1.468   4.426   1.950 -0.0873 -2.1037 -0.9433
  885SOL    HW2 3248   1.424   4.537   1.857  2.5977  0.7408  0.9745
  886SOL     OW 3249   1.780   5.331   1.268  0.1626 -0.0016  0.1925
  886SOL    HW1 3250   1.867   5.356   1.236  0.4587 -1.0199  0.1570
  886SOL    HW2 3251   1.735   5.296   1.191  1.0476 -2.9139  0.8683
  887SOL     OW 3252   0.977   4.010   0.627  0.3013  0.0448 -0.6029
  887SOL    HW1 3253   0.940   3.924   0.645  2.1993 -1.1327 -1.9608
  887SOL    HW2 3254   0.925   4.043   0.553 -1.5405  0.8947  0.9803
  888SOL     OW 3255   6.866   0.621   0.700  0.1985  0.0103  0.3215
  888SOL    HW1 3256   6.919   0.692   0.737  0.0935  0.4603 -0.3667
  888SOL    HW2 3257   6.839   0.570   0.776  0.4912  0.5581  0.8095
  889SOL     OW 3258   7.318   0.408   2.837 -0.1856  0.1965  0.4982
  889SOL    HW1 3259   7.269   0.483   2.870 -0.6962  0.2442 -0.3399
  889SOL    HW2 3260   7.281   0.333   2.884  0.3483  0.4562  1.3622
  890SOL     OW 3261   0.314   4.190   0.215 -0.5291  0.3883  0.2053
  890SOL    HW1 3262   0.407   4.188   0.193 -0.3589  1.2929  0.7660
  890SOL    HW2 3263   0.311   4.236   0.299 -1.4689  0.2364  0.2636
  891SOL     OW 3264   0.138   0.168   3.364  0.2087 -0.0207  0.7085
  891SOL    HW1 3265   0.065   0.172   3.302 -0.2906  0.9843  1.3280
  891SOL    HW2 3266   0.097   0.179   3.450  0.9870 -0.5011  1.1589
  892SOL     OW 3267   1.191   4.069   0.382 -0.1986 -0.1763 -0.1399
  892SOL    HW1 3268   1.244   3.991   0.399 -0.6913 -0.5950 -0.5254
  892SOL    HW2 3269   1.105   4.036   0.358 -0.2414  0.4693 -0.9279
  893SOL     OW 3270   0.661   3.823   1.372 -0.2512  0.1259 -0.6604
  893SOL    HW1 3271   0.655   3.734   1.338 -2.6013  0.0743 -0.2770
  893SOL    HW2 3272   0.741   3.859   1.332  1.4264 -2.4829  0.1076
  894SOL     OW 3273   0.143   0.347   0.355  0.0714 -0.2514  0.1181
  894SOL    HW1 3274   0.132   0.426   0.408 -0.1616  1.4907 -2.3135
  894SOL    HW2 3275   0.065   0.295   0.374  0.2124  0.0800  1.7686
  895SOL     OW 3276   6.954   4.165   3.460 -0.1393 -0.1671  0.1533
  895SOL    HW1 3277   6.892   4.238   3.466  1.0455  0.7960  1.2374
  895SOL    HW2 3278   7.036   4.201   3.492  0.6917 -1.7570 -0.1081
  896SOL     OW 3279   0.080   4.309   1.053  0.9061  0.0314 -0.0483
  896SOL    HW1 3280   0.032   4.313   0.970  0.8062 -1.7681 -0.1128
  896SOL    HW2 3281   0.172   4.311   1.028  0.9131 -2.2054 -0.3828
  897SOL     OW 3282   0.878   2.490   0.647  0.0731 -0.0816 -0.3742
  897SOL    HW1 3283   0.796   2.517   0.608 -1.4292 -1.1810  1.7848
  897SOL    HW2 3284   0.940   2.485   0.574 -1.9531  0.0623 -2.1871
  898SOL     OW 3285   2.425   3.157   1.834  0.1385  1.0490 -0.5754
  898SOL    HW1 3286   2.411   3.129   1.924  0.7219  2.7124  0.0734
  898SOL    HW2 3287   2.398   3.249   1.833 -0.2349  0.9449 -2.1992
  899SOL     OW 3288   1.479   4.840   0.202  0.3981  0.4418 -0.4579
  899SOL    HW1 3289   1.517   4.915   0.156 -0.0383  1.0595  0.1635
  899SOL    HW2 3290   1.390   4.833   0.167 -0.6903  2.2328  1.7008
  900SOL     OW 3291   1.172   5.259   0.361 -0.0949  0.1607  0.2222
  900SOL    HW1 3292   1.127   5.337   0.393 -0.8838  0.5714 -1.7247
  900SOL    HW2 3293   1.251   5.253   0.415 -0.1809  2.1107  0.6357
  901SOL     OW 3294   2.202   4.965   0.947  0.4191 -0.0766  0.0065
  901SOL    HW1 3295   2.288   4.978   0.906  0.6218  0.8033  0.6887
  901SOL    HW2 3296   2.181   4.873   0.928  1.8298 -0.5267  0.4173
  902SOL     OW 3297   6.164   3.467   3.384 -0.2293 -0.2806  0.1837
  902SOL    HW1 3298   6.085   3.512   3.412 -1.1476 -0.9119 -1.2764
  902SOL    HW2 3299   6.161   3.471   3.288  1.5104 -0.3153  0.1037
  903SOL     OW 3300   1.629   1.075   3.402 -0.0640  0.2739  0.0654
  903SOL    HW1 3301   1.720   1.087   3.427  0.2707  0.4991 -1.1637
  903SOL    HW2 3302   1.602   0.994   3.446  0.6558  0.3290  0.6247
  904SOL     OW 3303   0.066   4.994   1.161  0.3548 -0.2480 -0.1952
  904SOL    HW1 3304  -0.020   4.961   1.186 -0.4163  2.1635  0.7244
  904SOL    HW2 3305   0.114   4.918   1.128 -2.5848 -1.4275 -2.0866
  905SOL     OW 3306   0.223   4.781   1.582  0.1121 -0.5049  0.8894
  905SOL    HW1 3307   0.189   4.831   1.657 -3.2163 -0.9924 -0.1278
  905SOL    HW2 3308   0.231   4.846   1.512 -0.8261 -0.7495  0.5433
  906SOL     OW 3309   1.269   3.669   1.808  0.3306 -0.3283  0.2724
  906SOL    HW1 3310   1.290   3.717   1.728 -1.8274  1.4701  0.6623
  906SOL    HW2 3311   1.227   3.588   1.777 -0.8922  0.5493 -0.4754
  907SOL     OW 3312   0.899   3.483   1.108 -0.0162  0.2564 -0.0860
  907SOL    HW1 3313   0.921   3.569   1.073  1.8406  0.2452  0.9280
  907SOL    HW2 3314   0.983   3.445   1.135 -1.0000 -0.9916  1.4345
  908SOL     OW 3315   7.237   5.156   0.629  0.4398  0.7016 -0.2748
  908SOL    HW1 3316   7.172   5.153   0.700 -0.2761  3.1016 -0.7266
  908SOL    HW2 3317   7.300   5.223   0.657  0.8774  0.7482 -1.3165
  909SOL     OW 3318   0.323   1.639   2.681  0.1115 -0.2255  0.2505
  909SOL    HW1 3319   0.401   1.639   2.625  0.1955 -0.8954  0.3557
  909SOL    HW2 3320   0.266   1.573   2.641 -0.4437  0.3213  0.1234
  910SOL     OW 3321   2.713   4.714   0.489  0.1622  0.4853  0.0463
  910SOL    HW1 3322   2.732   4.805   0.510  1.4141  0.2384  0.0519
  910SOL    HW2 3323   2.688   4.674   0.573  1.1190  0.4702  0.3313
  911SOL     OW 3324   0.307   5.121   0.697 -0.4548  0.1001  0.6608
  911SOL    HW1 3325   0.334   5.166   0.617 -0.8843 -0.0909  0.4076
  911SOL    HW2 3326   0.341   5.176   0.768 -0.2753  0.3918  0.3509
  912SOL     OW 3327   1.232   4.171   2.561  0.6113 -0.0680  0.0382
  912SOL    HW1 3328   1.231   4.202   2.652  0.7234 -0.7088  0.2664
  912SOL    HW2 3329   1.266   4.244   2.511  0.3938  0.3498  0.4944
  913SOL     OW 3330   1.868   5.342   0.444  0.7416 -0.2714  0.0660
  913SOL    HW1 3331   1.813   5.365   0.519  0.5111  0.4021 -0.2931
  913SOL    HW2 3332   1.948   5.306   0.482  0.2346 -0.8362  0.6063
  914SOL     OW 3333   1.486   4.186   3.500  0.8556 -0.0278  0.0651
  914SOL    HW1 3334   1.443   4.196   3.415  0.3344  0.1087  0.3416
  914SOL    HW2 3335   1.580   4.188   3.480  0.7349 -0.4724 -0.5601
  915SOL     OW 3336   0.473   4.317   3.527 -0.1786 -0.2201  0.1717
  915SOL    HW1 3337   0.420   4.304   3.448 -1.9304  1.9775  0.8937
  915SOL    HW2 3338   0.422   4.377   3.581  2.1367  0.3648  1.8753
  916SOL     OW 3339   7.156   1.156   0.349  0.3530 -0.8136 -0.5759
  916SOL    HW1 3340   7.183   1.070   0.317 -1.6590 -1.5130 -0.5403
  916SOL    HW2 3341   7.119   1.200   0.272  1.0191 -0.0922 -0.5076
  917SOL     OW 3342   6.940   4.672   2.021  0.2468  0.9042 -0.1441
  917SOL    HW1 3343   7.029   4.646   1.996  0.7446  1.5127  0.9573
  917SOL    HW2 3344   6.885   4.598   1.993  1.2914 -0.1667  0.5264
  918SOL     OW 3345   2.045   3.681   2.647  0.0893  0.1817  0.3598
  918SOL    HW1 3346   1.955   3.670   2.616 -0.3179 -1.3064  1.8735
  918SOL    HW2 3347   2.080   3.753   2.595 -1.8229  0.4961 -0.5920
  919SOL     OW 3348   7.083   1.306   1.465  0.1379  0.6493  0.1994
  919SOL    HW1 3349   7.113   1.302   1.374  0.1612  2.2973  0.1153
  919SOL    HW2 3350   7.046   1.393   1.475  0.5250  0.6641  1.8915
  920SOL     OW 3351   0.339   2.869   0.515  0.4235 -0.1081  0.2259
  920SOL    HW1 3352   0.249   2.898   0.500  0.3192 -0.0892  0.8749
  920SOL    HW2 3353   0.357   2.808   0.443  0.4217  1.0581 -0.7949
  921SOL     OW 3354   7.093   5.162   0.316 -0.5566 -0.0959 -0.0850
  921SOL    HW1 3355   7.085   5.142   0.223  0.2180  0.6565 -0.3261
  921SOL    HW2 3356   7.186   5.147   0.336 -0.7303 -0.3253  0.5859
  922SOL     OW 3357   1.112   0.374   0.724 -0.2802  0.2225  0.4499
  922SOL    HW1 3358   1.174   0.385   0.797 -0.5177  2.1936  0.4084
  922SOL    HW2 3359   1.058   0.453   0.726 -0.6863  0.0500 -1.4973
  923SOL     OW 3360   7.230   4.434   0.333  0.9525 -0.0332 -0.6655
  923SOL    HW1 3361   7.270   4.454   0.417  1.2878 -1.4987 -0.4443
  923SOL    HW2 3362   7.227   4.517   0.287 -0.6877  1.1287  1.3727
  924SOL     OW 3363   6.428   3.096   1.819 -0.1277 -0.5388 -0.3222
  924SOL    HW1 3364   6.419   3.046   1.738  1.0918 -0.6274 -0.4153
  924SOL    HW2 3365   6.397   3.037   1.888 -0.6775 -0.6492 -0.6605
  925SOL     OW 3366   0.671   4.680   0.398 -0.3285  0.0834  0.1162
  925SOL    HW1 3367   0.671   4.727   0.314 -0.6412  2.9497  1.5889
  925SOL    HW2 3368   0.702   4.745   0.462 -0.4567 -1.8713  2.3006
  926SOL     OW 3369   1.114   0.074   2.955  0.2175  0.8826 -0.1256
  926SOL    HW1 3370   1.098   0.037   2.868  0.3933 -1.1303  0.6325
  926SOL    HW2 3371   1.156   0.158   2.938 -0.8272  1.0831 -1.9817
  927SOL     OW 3372   6.080   5.202   0.747 -0.0042  0.0697  0.4475
  927SOL    HW1 3373   6.120   5.248   0.822  1.1734 -0.4340  0.1548
  927SOL    HW2 3374   6.148   5.140   0.719 -1.7147 -2.2561  1.1712
  928SOL     OW 3375   0.083   0.373   1.310  0.2928 -0.3245  0.5542
  928SOL    HW1 3376   0.061   0.305   1.245 -1.1906 -0.5133  1.2058
  928SOL    HW2 3377   0.024   0.355   1.383  0.6149  1.0569  1.1716
  929SOL     OW 3378   6.737   4.028   2.468 -0.0774 -0.7777  0.1996
  929SOL    HW1 3379   6.675   4.099   2.451  0.4905 -0.2396  0.3402
  929SOL    HW2 3380   6.822   4.071   2.475  0.1442 -1.3411  1.2747
  930SOL     OW 3381   6.681   4.441   2.662  0.6105 -0.3226 -0.1449
  930SOL    HW1 3382   6.613   4.507   2.673  1.5237  0.5559  0.4580
  930SOL    HW2 3383   6.697   4.408   2.750 -0.0369 -1.5855 -0.4805
  931SOL     OW 3384   1.613   1.148   1.813 -0.3689 -0.0991 -0.0966
  931SOL    HW1 3385   1.618   1.236   1.852  0.4247  0.3143 -1.0840
  931SOL    HW2 3386   1.658   1.092   1.877  1.6980  0.7162 -0.7368
  932SOL     OW 3387   1.869   4.875   0.812  0.3127 -0.0095  0.4205
  932SOL    HW1 3388   1.930   4.948   0.809  0.4800 -0.1435  0.5378
  932SOL    HW2 3389   1.818   4.883   0.732  1.1693 -0.4826 -0.1872
  933SOL     OW 3390   0.671   4.600   3.372 -0.4485 -0.0351 -0.3028
  933SOL    HW1 3391   0.602   4.601   3.437  0.1484  1.3234  0.3624
  933SOL    HW2 3392   0.628   4.627   3.291 -0.3824  3.0233  0.5529
  934SOL     OW 3393   0.914   4.376   1.626  0.1194 -0.3932  0.9368
  934SOL    HW1 3394   0.854   4.322   1.573  2.2430 -1.2994 -0.6979
  934SOL    HW2 3395   0.922   4.458   1.577  0.1492 -0.2398  1.1967
  935SOL     OW 3396   1.420   0.058   0.228  0.0098  0.4964 -0.4250
  935SOL    HW1 3397   1.466  -0.009   0.279 -0.7757  0.0893 -0.2435
  935SOL    HW2 3398   1.478   0.075   0.154  0.1063 -0.5584 -0.6053
  936SOL     OW 3399   7.075   3.621   1.005  0.0907 -0.0992  0.6556
  936SOL    HW1 3400   7.004   3.592   1.063 -1.0434 -0.7858 -0.9996
  936SOL    HW2 3401   7.119   3.540   0.978 -0.6556 -0.0148 -0.9573
  937SOL     OW 3402   0.838   4.211   0.466  0.4240  0.1445  0.3457
  937SOL    HW1 3403   0.813   4.303   0.470  0.5349  0.1760  0.3187
  937SOL    HW2 3404   0.769   4.165   0.514 -0.3236  0.1012 -0.7257
  938SOL     OW 3405   1.282   4.877   1.123 -0.2992 -0.0089 -0.0485
  938SOL    HW1 3406   1.193   4.903   1.145 -0.3698 -0.3956  0.1363
  938SOL    HW2 3407   1.272   4.808   1.057 -0.2230 -1.4242  1.3556
  939SOL     OW 3408   1.208   4.873   0.590 -0.2761  0.7257  0.2671
  939SOL    HW1 3409   1.218   4.957   0.634  0.2330  0.7088  0.1900
  939SOL    HW2 3410   1.287   4.824   0.613 -0.8261  0.0489  0.7718
  940SOL     OW 3411   0.594   0.392   0.118 -0.1628  0.6954  0.0170
  940SOL    HW1 3412   0.554   0.377   0.204  1.1572 -0.5601  0.4415
  940SOL    HW2 3413   0.601   0.305   0.079  2.0813  0.8482 -0.0508
  941SOL     OW 3414   0.272   4.518   1.511  0.6351  0.2406 -0.1408
  941SOL    HW1 3415   0.249   4.610   1.524  0.0172  0.1784 -0.7690
  941SOL    HW2 3416   0.270   4.505   1.417 -0.9648 -0.8339  0.0085
  942SOL     OW 3417   6.864   4.852   3.397  0.3983 -0.4148  0.3068
  942SOL    HW1 3418   6.907   4.786   3.343  0.1613  0.9760 -1.7134
  942SOL    HW2 3419   6.781   4.813   3.422  0.4111 -1.0333 -0.5673
  943SOL     OW 3420   0.679   3.317   1.059  0.0301  0.1523  0.2580
  943SOL    HW1 3421   0.683   3.256   1.133  0.1305 -1.8427 -1.3357
  943SOL    HW2 3422   0.766   3.358   1.058  0.5357 -0.8788  0.3886
  944SOL     OW 3423   0.363   3.132   0.983 -0.0474  0.4065  0.0224
  944SOL    HW1 3424   0.358   3.192   1.056  0.1520  0.5766 -0.1028
  944SOL    HW2 3425   0.382   3.187   0.907 -0.9693  0.3254 -0.2867
  945SOL     OW 3426   1.941   1.314   2.328  0.2333  0.3525  0.1050
  945SOL    HW1 3427   2.028   1.316   2.366  0.5717  0.1372 -0.6291
  945SOL    HW2 3428   1.917   1.221   2.327 -0.0526  0.4215  0.4059
  946SOL     OW 3429   1.048   5.124   3.149 -0.9270  0.4312  0.2315
  946SOL    HW1 3430   1.072   5.050   3.204 -0.2849  0.3606 -0.1350
  946SOL    HW2 3431   0.977   5.168   3.197  0.1836  0.8608  1.5377
  947SOL     OW 3432   7.144   5.356   2.459  0.2807  0.2001 -0.5302
  947SOL    HW1 3433   7.055   5.323   2.442  0.5778 -0.6745 -0.4215
  947SOL    HW2 3434   7.194   5.279   2.482  0.6698  0.9136  1.1502
  948SOL     OW 3435   6.314   5.303   3.475 -0.2450 -0.5850 -0.5759
  948SOL    HW1 3436   6.289   5.393   3.455  1.2405  0.2527  1.0829
  948SOL    HW2 3437   6.410   5.305   3.481 -0.1646 -2.3217 -0.6598
  949SOL     OW 3438   2.535   4.602   0.225 -0.3402 -0.2453 -0.4130
  949SOL    HW1 3439   2.544   4.582   0.318 -1.6762 -1.9450 -0.5986
  949SOL    HW2 3440   2.475   4.678   0.222 -1.3608 -1.0041  0.0980
  950SOL     OW 3441   1.245   0.681   1.101 -0.2006 -0.1026  0.1644
  950SOL    HW1 3442   1.292   0.765   1.103  0.3229 -0.1401 -3.6491
  950SOL    HW2 3443   1.314   0.616   1.094 -0.6928 -0.6526  0.3715
  951SOL     OW 3444   0.405   4.760   0.936 -0.1166  0.1717 -0.0489
  951SOL    HW1 3445   0.426   4.847   0.970  0.7549  0.5093 -1.3660
  951SOL    HW2 3446   0.427   4.765   0.843 -0.9097 -1.1899 -0.3337
  952SOL     OW 3447   6.770   1.487   0.398 -0.1707 -0.5174  0.3541
  952SOL    HW1 3448   6.775   1.443   0.312 -0.8517 -0.8119  0.4561
  952SOL    HW2 3449   6.688   1.536   0.395 -0.1641 -0.4758  0.8147
  953SOL     OW 3450   1.477   0.604   2.563 -0.2875 -0.2458  0.2137
  953SOL    HW1 3451   1.542   0.644   2.619 -0.6281  2.5923 -1.2525
  953SOL    HW2 3452   1.527   0.570   2.489 -0.1829 -1.0035  0.6207
  954SOL     OW 3453   0.074   0.977   2.247  0.4389  0.0971 -0.2418
  954SOL    HW1 3454   0.042   0.889   2.227 -1.3198  1.1582 -2.6749
  954SOL    HW2 3455   0.041   0.995   2.335 -0.7726 -1.0063 -0.4331
  955SOL     OW 3456   1.864   4.262   1.681 -0.0017  0.3730  0.2479
  955SOL    HW1 3457   1.784   4.275   1.732  0.1230  0.2002  0.4885
  955SOL    HW2 3458   1.887   4.350   1.651  0.6133  0.6794  1.5381
  956SOL     OW 3459   6.447   3.167   2.215 -0.1208  0.0213  0.0278
  956SOL    HW1 3460   6.397   3.245   2.236 -0.1792 -0.6068  2.5206
  956SOL    HW2 3461   6.539   3.196   2.217 -0.2084  0.3684 -0.7638
  957SOL     OW 3462   1.785   4.490   1.387 -0.4007 -0.1016  0.2980
  957SOL    HW1 3463   1.743   4.472   1.303  0.9539  0.0297 -0.4362
  957SOL    HW2 3464   1.876   4.461   1.376 -0.0447  0.4524  1.5289
  958SOL     OW 3465   6.498   5.089   0.816  0.3457  0.0434 -0.1666
  958SOL    HW1 3466   6.456   5.112   0.899  0.5739 -0.2337  0.0242
  958SOL    HW2 3467   6.522   5.174   0.778  0.8181  0.1467  0.3462
  959SOL     OW 3468   2.262   1.045   0.114 -0.1702  0.1448  0.3917
  959SOL    HW1 3469   2.350   1.022   0.146 -0.2878  0.0549  0.6573
  959SOL    HW2 3470   2.262   1.141   0.112  0.7681  0.1628 -1.9727
  960SOL     OW 3471   0.977   4.745   2.148 -0.6244 -0.8423 -0.0032
  960SOL    HW1 3472   1.007   4.655   2.163 -0.6850 -0.6249  1.5778
  960SOL    HW2 3473   1.043   4.783   2.090 -0.0870 -1.6219  0.0867
  961SOL     OW 3474   0.615   4.736   1.306  0.1903 -0.1280 -0.2163
  961SOL    HW1 3475   0.669   4.697   1.237 -1.0164 -1.0036 -0.7143
  961SOL    HW2 3476   0.622   4.674   1.379  0.2131 -0.0226 -0.1297
  962SOL     OW 3477   2.432   5.148   0.953 -0.1642 -0.1686  0.1989
  962SOL    HW1 3478   2.347   5.193   0.952  0.7191  1.6246 -1.0758
  962SOL    HW2 3479   2.479   5.185   0.878  1.7574 -1.0811  0.8902
  963SOL     OW 3480   2.062   4.091   1.558 -0.2158  0.1956  0.8123
  963SOL    HW1 3481   2.078   4.108   1.465  0.7823 -0.3012  0.8757
  963SOL    HW2 3482   1.989   4.148   1.581 -0.0682  0.7885 -0.1254
  964SOL     OW 3483   2.557   3.370   3.074  0.4972  0.3863  0.1728
  964SOL    HW1 3484   2.476   3.419   3.067 -1.3318 -2.4631 -0.3284
  964SOL    HW2 3485   2.586   3.357   2.984  0.9430  0.4966  0.2953
  965SOL     OW 3486   0.543   4.583   0.118  0.0553  0.1902 -0.5801
  965SOL    HW1 3487   0.572   4.663   0.162 -1.0651  0.7297 -0.7715
  965SOL    HW2 3488   0.448   4.595   0.109  0.0039 -0.7704 -1.4026
  966SOL     OW 3489   2.905   3.264   2.935 -0.3581 -0.4288  0.0226
  966SOL    HW1 3490   2.811   3.249   2.946 -0.3469  0.5432  1.8155
  966SOL    HW2 3491   2.935   3.294   3.021  1.3086  0.7488 -0.9056
  967SOL     OW 3492   1.850   3.614   2.189 -0.1991  0.0048 -0.0844
  967SOL    HW1 3493   1.904   3.605   2.111 -3.3722  2.0272 -2.7868
  967SOL    HW2 3494   1.856   3.706   2.213 -1.2918 -0.0465  0.4454
  968SOL     OW 3495   0.807   0.094   1.462  0.1596 -0.0167 -0.1153
  968SOL    HW1 3496   0.833   0.004   1.482  1.1439 -0.2109 -2.0548
  968SOL    HW2 3497   0.825   0.143   1.542 -0.7824 -1.6031  1.1144
  969SOL     OW 3498   0.156   3.066   0.585  0.2191 -0.9146 -0.6484
  969SOL    HW1 3499   0.094   3.105   0.647  1.5068  2.0426 -1.0625
  969SOL    HW2 3500   0.221   3.023   0.640 -0.1323 -0.6872 -0.0464
  970SOL     OW 3501   1.115   4.242   0.660 -0.0422  0.3858 -0.2092
  970SOL    HW1 3502   1.068   4.159   0.664 -1.7672  1.3187 -0.1140
  970SOL    HW2 3503   1.120   4.262   0.566  2.4203 -0.8840 -0.4164
  971SOL     OW 3504   1.780   1.197   0.163  0.1075  0.0721 -0.5389
  971SOL    HW1 3505   1.841   1.152   0.105  0.8714  1.8511 -1.1846
  971SOL    HW2 3506   1.695   1.184   0.123  0.3575 -0.4756 -0.9028
  972SOL     OW 3507   0.733   4.396   3.112  0.3108 -0.3485  0.1287
  972SOL    HW1 3508   0.790   4.469   3.138  0.5558 -0.8064  0.8992
  972SOL    HW2 3509   0.793   4.329   3.081  0.1054 -0.3588 -0.2513
  973SOL     OW 3510   1.303   3.533   3.109  0.2330  0.2877 -0.2263
  973SOL    HW1 3511   1.361   3.457   3.100  1.3693  1.0994  0.0621
  973SOL    HW2 3512   1.236   3.519   3.042 -0.2155 -1.5021  0.5251
  974SOL     OW 3513   1.943   0.442   3.054 -0.4743  0.2880 -0.5044
  974SOL    HW1 3514   1.962   0.406   3.140  2.3751 -0.8566 -1.5204
  974SOL    HW2 3515   1.985   0.528   3.054 -0.7363  0.4197 -0.6819
  975SOL     OW 3516   0.355   0.185   1.122  0.1092 -0.1308 -0.2472
  975SOL    HW1 3517   0.323   0.271   1.096  0.5817  0.2894  0.5409
  975SOL    HW2 3518   0.438   0.202   1.166  0.7356 -1.0891 -1.0118
  976SOL     OW 3519   1.846   0.151   0.297 -0.5194 -0.6009 -0.5373
  976SOL    HW1 3520   1.895   0.131   0.217  0.5727 -0.4739  0.0834
  976SOL    HW2 3521   1.850   0.070   0.347  0.2806 -0.1519  0.1372
  977SOL     OW 3522   7.321   2.806   2.459  0.6857 -0.2350 -0.3044
  977SOL    HW1 3523   7.323   2.717   2.424  1.4703 -0.1687 -0.4648
  977SOL    HW2 3524   7.370   2.858   2.395 -1.2669  0.6741 -1.1238
  978SOL     OW 3525   6.699   4.274   0.223  0.0410 -0.0798  0.4075
  978SOL    HW1 3526   6.775   4.333   0.221  0.2526 -0.3274  0.9394
  978SOL    HW2 3527   6.737   4.187   0.219 -0.2860 -0.1884 -0.7310
  979SOL     OW 3528   1.655   1.210   0.987  0.0282  0.6443  0.0882
  979SOL    HW1 3529   1.576   1.178   0.943  0.8435 -0.2051 -0.8294
  979SOL    HW2 3530   1.627   1.289   1.033 -1.9377 -0.9922  1.9014
  980SOL     OW 3531   2.539   4.810   0.797  0.4258 -0.2656 -0.0966
  980SOL    HW1 3532   2.523   4.883   0.737 -0.1252 -0.8902 -0.7256
  980SOL    HW2 3533   2.610   4.841   0.854  0.0849  0.8224 -0.2325
  981SOL     OW 3534   0.144   0.800   1.021  0.3014 -0.0964  0.1147
  981SOL    HW1 3535   0.138   0.737   1.093  1.8371 -2.7371 -1.8848
  981SOL    HW2 3536   0.069   0.858   1.035  0.3610 -0.6156  3.6293
  982SOL     OW 3537   0.957   3.626   2.249 -0.2311  0.3550  0.0450
  982SOL    HW1 3538   1.042   3.582   2.247  0.0540  0.8017  1.4468
  982SOL    HW2 3539   0.893   3.555   2.242  0.2382 -0.0962  0.3105
  983SOL     OW 3540   1.240   4.556   0.183  0.9951  0.6755  0.5081
  983SOL    HW1 3541   1.183   4.540   0.258  1.5081 -1.1494  0.5684
  983SOL    HW2 3542   1.242   4.651   0.174 -1.1890  0.8238  1.1419
  984SOL     OW 3543   1.240   3.372   1.399 -0.1214 -0.0182 -0.2998
  984SOL    HW1 3544   1.193   3.359   1.317  0.0298 -1.9725 -0.1181
  984SOL    HW2 3545   1.313   3.309   1.395 -0.1703 -0.2210  1.3674
  985SOL     OW 3546   6.765   2.091   2.349  0.4630 -0.0571  0.1625
  985SOL    HW1 3547   6.803   2.157   2.408 -1.0469  0.4464  0.6183
  985SOL    HW2 3548   6.707   2.040   2.405 -1.3603  0.7164 -0.9123
  986SOL     OW 3549   6.951   3.725   0.283 -0.0636 -0.1902 -0.0019
  986SOL    HW1 3550   6.863   3.761   0.274 -0.4043 -0.5727  1.5112
  986SOL    HW2 3551   6.958   3.703   0.376  1.6501 -0.1269 -0.0969
  987SOL     OW 3552   7.423   3.599   2.828  0.3460  0.1911  0.9411
  987SOL    HW1 3553   7.403   3.589   2.735 -1.0263  0.2524  1.2066
  987SOL    HW2 3554   7.436   3.693   2.840  0.2803  0.2115  0.8502
  988SOL     OW 3555   6.355   4.904   1.853 -0.1136  0.1836 -0.3100
  988SOL    HW1 3556   6.435   4.869   1.815  0.8452  2.2106 -0.2976
  988SOL    HW2 3557   6.340   4.986   1.806 -0.0433  1.7411  2.1804
  989SOL     OW 3558   1.162   5.330   2.078  0.4241  0.5303 -0.3363
  989SOL    HW1 3559   1.110   5.249   2.075  1.3428 -0.0622 -0.9622
  989SOL    HW2 3560   1.098   5.399   2.093 -0.6118 -0.1330 -1.5021
  990SOL     OW 3561   2.011   4.719   3.374  0.0155  0.6406  0.2493
  990SOL    HW1 3562   1.945   4.776   3.335  0.3420  0.4625 -0.5815
  990SOL    HW2 3563   2.073   4.702   3.303 -0.8943 -2.0179 -0.0063
  991SOL     OW 3564   1.635   4.965   3.001  0.0559 -0.1873  0.3852
  991SOL    HW1 3565   1.700   4.901   2.973 -0.2394 -0.7282  0.9010
  991SOL    HW2 3566   1.678   5.049   2.990  0.1333 -0.4105 -1.1382
  992SOL     OW 3567   0.978   3.636   2.712 -0.1842  0.4887 -0.6897
  992SOL    HW1 3568   0.947   3.546   2.705 -0.0998  0.4163 -0.1688
  992SOL    HW2 3569   0.957   3.676   2.627  0.0511 -0.1063 -1.0313
  993SOL     OW 3570   0.388   0.037   0.166  0.3789  0.0127  0.1977
  993SOL    HW1 3571   0.308   0.090   0.168  2.4599  3.5863 -1.4182
  993SOL    HW2 3572   0.384  -0.009   0.082 -0.0633  0.0439  0.2003
  994SOL     OW 3573   0.264   0.665   2.290 -0.1746 -0.2294 -0.5805
  994SOL    HW1 3574   0.263   0.703   2.378  0.8725  0.3321 -0.7913
  994SOL    HW2 3575   0.253   0.571   2.304 -0.7156 -0.0764  0.0952
  995SOL     OW 3576   7.136   4.003   2.206 -0.2833 -0.3484  0.1223
  995SOL    HW1 3577   7.136   3.937   2.137  0.4691  0.1499 -0.3582
  995SOL    HW2 3578   7.044   4.026   2.217 -0.5036 -1.1286 -0.0395
  996SOL     OW 3579   0.649   5.093   2.558 -0.8106  0.8281  0.3397
  996SOL    HW1 3580   0.630   5.103   2.652  2.6148 -0.3033  1.2832
  996SOL    HW2 3581   0.594   5.019   2.531 -1.9706  1.2718  1.3889
  997SOL     OW 3582   0.258   4.054   1.724 -0.1578 -0.1746  0.4376
  997SOL    HW1 3583   0.261   4.093   1.811 -3.0543 -1.9341  1.4647
  997SOL    HW2 3584   0.186   4.098   1.680  1.3302  0.7636 -1.1836
  998SOL     OW 3585   1.749   3.258   0.600 -0.3438  0.1421 -0.0709
  998SOL    HW1 3586   1.828   3.296   0.639  0.1163  0.0959 -0.9241
  998SOL    HW2 3587   1.771   3.165   0.588  0.6102  0.6195 -2.9263
  999SOL     OW 3588   0.261   4.494   1.235  0.7835  0.0675  0.1268
  999SOL    HW1 3589   0.210   4.416   1.213 -0.0697  0.2669  1.3031
  999SOL    HW2 3590   0.350   4.462   1.248  0.2431 -0.9070  1.6319
 1000SOL     OW 3591   6.364   0.151   3.160 -0.2234  0.1948 -0.8536
 1000SOL    HW1 3592   6.353   0.147   3.065  0.1780 -1.0483 -0.8636
 1000SOL    HW2 3593   6.366   0.060   3.188 -0.6050  0.5452  0.3906
 1001SOL     OW 3594   0.354   0.216   0.823 -0.1933  0.2861 -0.3300
 1001SOL    HW1 3595   0.413   0.291   0.812  1.2912 -0.5675  1.3008
 1001SOL    HW2 3596   0.324   0.222   0.913 -0.7566 -0.5960 -0.4457
 1002SOL     OW 3597   1.881   3.621   1.898  0.3228 -0.5499  0.0936
 1002SOL    HW1 3598   1.817   3.678   1.855 -0.0310 -1.1408 -0.1683
 1002SOL    HW2 3599   1.832   3.543   1.922  0.7440 -0.6408  0.6974
 1003SOL     OW 3600   6.181   2.293   1.940 -0.0104  0.3194 -0.0419
 1003SOL    HW1 3601   6.175   2.232   2.014  1.4322 -0.4106 -0.4778
 1003SOL    HW2 3602   6.167   2.238   1.863 -0.3720  0.8624 -0.3689
 1004SOL     OW 3603   0.816   2.086   0.982  0.0689 -0.0503 -0.0235
 1004SOL    HW1 3604   0.885   2.104   0.918 -0.4580 -0.9681 -0.8934
 1004SOL    HW2 3605   0.857   2.102   1.067  1.7477 -1.7649 -0.4451
 1005SOL     OW 3606   1.197   3.448   2.187  0.1623  0.1185  0.6742
 1005SOL    HW1 3607   1.290   3.465   2.171  0.8818 -1.0817  3.0836
 1005SOL    HW2 3608   1.196   3.400   2.269 -2.4492 -1.9785 -0.4484
 1006SOL     OW 3609   2.741   3.687   0.576  0.3337 -0.0992  0.5110
 1006SOL    HW1 3610   2.747   3.705   0.669  0.5302  2.0203  0.1406
 1006SOL    HW2 3611   2.651   3.708   0.552  0.4516  0.0018  0.1300
 1007SOL     OW 3612   2.005   5.382   2.302  0.3837  0.1200  0.1571
 1007SOL    HW1 3613   1.976   5.374   2.211  1.1093 -0.0101 -0.0644
 1007SOL    HW2 3614   2.009   5.476   2.318  0.4182  0.1445  0.0048
 1008SOL     OW 3615   1.481   4.403   0.185 -0.2899 -0.3402  0.8008
 1008SOL    HW1 3616   1.403   4.446   0.221 -0.9163  0.1146 -1.0080
 1008SOL    HW2 3617   1.457   4.380   0.096  1.4198 -0.8303  0.4321
 1009SOL     OW 3618   1.452   1.258   1.506 -0.2245  0.0471 -0.7820
 1009SOL    HW1 3619   1.469   1.196   1.576  1.5492 -0.5181 -1.6622
 1009SOL    HW2 3620   1.393   1.322   1.545  0.3600 -0.4907  1.0922
 1010SOL     OW 3621   2.150   3.481   3.255  0.7360 -0.2159  0.2155
 1010SOL    HW1 3622   2.186   3.508   3.340  1.0996  0.5529 -0.1773
 1010SOL    HW2 3623   2.226   3.480   3.196  0.5016 -0.8300 -0.0905
 1011SOL     OW 3624   0.128   3.624   2.332 -0.1509  0.0957  0.6417
 1011SOL    HW1 3625   0.085   3.687   2.274  1.5514  2.0766  1.4277
 1011SOL    HW2 3626   0.131   3.543   2.281 -2.5375  0.5531 -0.3402
 1012SOL     OW 3627   6.720   5.282   2.111  0.0967 -0.1750 -0.1402
 1012SOL    HW1 3628   6.810   5.253   2.099  0.6724  0.7977  1.5276
 1012SOL    HW2 3629   6.677   5.208   2.154  0.9705  0.4772  1.9883
 1013SOL     OW 3630   1.895   5.235   3.074  0.2385 -0.6133  0.2786
 1013SOL    HW1 3631   1.894   5.312   3.131  0.5641 -0.8752  0.6396
 1013SOL    HW2 3632   1.842   5.261   2.998 -0.3719 -0.3345  0.7932
 1014SOL     OW 3633   0.852   4.828   3.271  0.5399 -0.4043 -0.2442
 1014SOL    HW1 3634   0.795   4.758   3.301 -0.2599  0.1241 -0.5022
 1014SOL    HW2 3635   0.907   4.849   3.346 -1.7895  1.2717  1.1223
 1015SOL     OW 3636   3.713   4.473   0.638  1.2049 -0.1173 -0.3076
 1015SOL    HW1 3637   3.655   4.404   0.670  0.6409 -0.2057 -1.4760
 1015SOL    HW2 3638   3.776   4.428   0.582  0.0221  0.4402 -2.1620
 1016SOL     OW 3639   0.967   0.227   1.719  0.0819  0.3670  0.4051
 1016SOL    HW1 3640   1.028   0.161   1.686 -0.9411 -0.2084 -0.3794
 1016SOL    HW2 3641   0.948   0.282   1.643 -2.6619 -1.2508 -0.2068
 1017SOL     OW 3642   0.074   3.736   0.855 -0.1420 -0.5830 -0.4089
 1017SOL    HW1 3643   0.020   3.669   0.897 -1.2421  0.3760 -0.2738
 1017SOL    HW2 3644   0.150   3.746   0.913 -0.7784 -0.5361  0.4266
 1018SOL     OW 3645   7.320   3.431   0.725 -0.4363 -0.4883 -0.2195
 1018SOL    HW1 3646   7.248   3.404   0.668 -0.7332  0.2099 -0.1792
 1018SOL    HW2 3647   7.320   3.526   0.721  0.2493 -0.4724  0.0767
 1019SOL     OW 3648   7.216   4.736   2.960 -0.0295  0.3036 -0.6345
 1019SOL    HW1 3649   7.144   4.799   2.969  1.4738  2.0990 -0.7038
 1019SOL    HW2 3650   7.221   4.694   3.046 -2.3342 -1.2642 -1.1614
 1020SOL     OW 3651   1.060   3.365   0.366  0.2667  0.5341 -0.4272
 1020SOL    HW1 3652   0.970   3.354   0.337 -0.4929  0.0856  1.8963
 1020SOL    HW2 3653   1.113   3.335   0.292 -1.5411 -3.6813 -0.2474
 1021SOL     OW 3654   0.608   4.699   2.441  0.1159 -0.1192 -0.0785
 1021SOL    HW1 3655   0.615   4.608   2.471  0.0712  0.4517  1.7987
 1021SOL    HW2 3656   0.692   4.739   2.466 -0.2940  0.6286  0.1209
 1022SOL     OW 3657   6.832   1.359   0.129  0.7858 -0.8753 -0.5016
 1022SOL    HW1 3658   6.816   1.400   0.044  1.2596  0.0514 -0.1528
 1022SOL    HW2 3659   6.840   1.266   0.109 -1.6310 -1.0133 -1.1433
 1023SOL     OW 3660   7.139   4.439   2.305 -0.1367  0.2218  0.3685
 1023SOL    HW1 3661   7.183   4.360   2.275 -0.9232  0.1465 -0.6491
 1023SOL    HW2 3662   7.197   4.510   2.279  0.8577 -0.0135  1.8021
 1024SOL     OW 3663   0.435   5.150   2.158  0.2730 -0.5295 -0.0740
 1024SOL    HW1 3664   0.427   5.145   2.253 -0.4983  1.0039 -0.0367
 1024SOL    HW2 3665   0.528   5.135   2.141  0.5907  0.1176  0.9969
 1025SOL     OW 3666   0.882   5.286   3.294 -0.1854  0.0622 -0.1512
 1025SOL    HW1 3667   0.881   5.343   3.217 -2.2144 -0.0435 -0.2570
 1025SOL    HW2 3668   0.909   5.344   3.366  0.6314  0.4276 -0.7369
 1026SOL     OW 3669   2.356   1.168   3.224 -0.2762 -0.2716  0.2506
 1026SOL    HW1 3670   2.419   1.106   3.261 -1.0048 -0.9041  0.4604
 1026SOL    HW2 3671   2.285   1.170   3.288 -1.0098 -0.4760 -0.5491
 1027SOL     OW 3672   1.653   4.737   2.612 -0.1335 -1.0232  0.2180
 1027SOL    HW1 3673   1.558   4.750   2.603 -0.0281 -0.0693  0.3705
 1027SOL    HW2 3674   1.675   4.675   2.542 -0.7562 -0.6707 -0.3052
 1028SOL     OW 3675   1.955   0.789   0.835 -0.3055  0.1719 -0.1773
 1028SOL    HW1 3676   1.894   0.850   0.793 -0.8966 -1.0642 -1.1636
 1028SOL    HW2 3677   1.906   0.754   0.909 -0.4112 -0.0236 -0.3393
 1029SOL     OW 3678   1.328   0.317   0.019 -0.5090  0.6207 -0.5077
 1029SOL    HW1 3679   1.416   0.280   0.012  0.4780  2.5617  0.6850
 1029SOL    HW2 3680   1.335   0.384   0.088 -3.2533 -0.0521  0.5839
 1030SOL     OW 3681   2.204   3.636   3.535  0.3888  0.0280  0.3400
 1030SOL    HW1 3682   2.190   3.572   3.605  1.0507  0.0632  0.5155
 1030SOL    HW2 3683   2.117   3.672   3.517  0.0290 -0.8267  0.3276
 1031SOL     OW 3684   6.046   4.869   0.855 -0.0620 -0.6214  0.0561
 1031SOL    HW1 3685   5.975   4.904   0.801  0.4885  1.4082  0.5500
 1031SOL    HW2 3686   6.125   4.885   0.803  0.1119 -2.3686 -0.2544
 1032SOL     OW 3687   2.808   1.101   0.848  0.3078  0.7089 -0.0132
 1032SOL    HW1 3688   2.785   1.194   0.846 -0.9506  0.5472  2.6064
 1032SOL    HW2 3689   2.751   1.060   0.783 -1.0104  1.4510  0.6379
 1033SOL     OW 3690   4.231   4.489   1.320 -0.4442  0.5920 -0.6042
 1033SOL    HW1 3691   4.324   4.510   1.333 -0.1650 -0.7341 -0.3434
 1033SOL    HW2 3692   4.184   4.560   1.364  0.4161  2.1435 -2.0950
 1034SOL     OW 3693   0.190   1.463   1.692  0.6472  0.8507  0.4558
 1034SOL    HW1 3694   0.150   1.492   1.774  1.1672  0.8065  0.7322
 1034SOL    HW2 3695   0.237   1.383   1.716 -0.0802  0.2382 -0.1218
 1035SOL     OW 3696   0.517   4.521   0.950  0.2624  0.3182 -0.1725
 1035SOL    HW1 3697   0.509   4.608   0.989 -1.4308  0.2720 -0.3483
 1035SOL    HW2 3698   0.481   4.530   0.862 -2.2211 -1.0194  0.5977
 1036SOL     OW 3699   1.467   0.874   2.487 -0.0176 -0.9068  0.0108
 1036SOL    HW1 3700   1.452   0.780   2.483 -3.2643 -0.4897 -0.3721
 1036SOL    HW2 3701   1.487   0.900   2.397  0.5898 -1.1612  0.0672
 1037SOL     OW 3702   1.602   0.621   0.591 -0.7422 -0.0412  0.7105
 1037SOL    HW1 3703   1.568   0.584   0.672 -2.4998  0.6426  0.3458
 1037SOL    HW2 3704   1.620   0.713   0.611  1.5165 -0.5038  1.0350
 1038SOL     OW 3705   7.308   4.389   1.726 -0.2485 -0.1921  0.2829
 1038SOL    HW1 3706   7.394   4.355   1.701  0.4620  1.2851  0.5795
 1038SOL    HW2 3707   7.248   4.354   1.660  0.7596 -0.4027 -0.5530
 1039SOL     OW 3708   2.439   3.858   1.550 -0.0765 -0.1321  0.1146
 1039SOL    HW1 3709   2.419   3.780   1.499  0.0166 -0.1589  0.1198
 1039SOL    HW2 3710   2.382   3.852   1.627  0.5889 -0.6521  0.5697
 1040SOL     OW 3711   1.254   5.148   1.573  0.1936  0.3966  0.3663
 1040SOL    HW1 3712   1.203   5.085   1.521  0.5726 -0.4215  0.9621
 1040SOL    HW2 3713   1.342   5.144   1.536  0.2800  0.3888  0.5724
 1041SOL     OW 3714   1.544   4.993   0.836  0.2335  0.3012 -0.3625
 1041SOL    HW1 3715   1.459   5.035   0.822 -0.1414 -0.4030 -0.2965
 1041SOL    HW2 3716   1.604   5.038   0.777 -0.8299 -1.1875 -2.7470
 1042SOL     OW 3717   1.410   3.803   1.614 -0.0852  0.1382 -0.3084
 1042SOL    HW1 3718   1.469   3.740   1.570 -0.1652 -0.5134  0.4865
 1042SOL    HW2 3719   1.431   3.887   1.574 -0.0779 -0.4063 -1.5175
 1043SOL     OW 3720   3.235   4.932   0.493 -0.3150 -0.3743  0.7265
 1043SOL    HW1 3721   3.294   4.862   0.463 -0.6693  0.2343 -1.5662
 1043SOL    HW2 3722   3.277   5.012   0.464 -2.2548  0.0766 -1.0474
 1044SOL     OW 3723   1.091   5.076   2.856 -0.1916  0.5377  0.1332
 1044SOL    HW1 3724   1.120   5.081   2.947  0.6796  0.8389 -0.1522
 1044SOL    HW2 3725   1.000   5.106   2.858 -0.8410 -1.3106  1.2017
 1045SOL     OW 3726   1.936   0.417   2.598 -0.2031  0.0460 -0.6331
 1045SOL    HW1 3727   1.931   0.327   2.632  0.2708 -0.2854 -1.4333
 1045SOL    HW2 3728   1.847   0.436   2.569 -0.3161 -0.1490 -0.4189
 1046SOL     OW 3729   6.621   5.303   2.905  0.3259  0.2708 -0.6024
 1046SOL    HW1 3730   6.549   5.367   2.910  1.0698  1.0784  0.0873
 1046SOL    HW2 3731   6.591   5.239   2.841 -1.4854 -0.0102  0.4347
 1047SOL     OW 3732   0.537   5.005   0.414 -0.4945  0.3034  0.4475
 1047SOL    HW1 3733   0.487   5.087   0.408 -2.3305 -0.7229  0.7845
 1047SOL    HW2 3734   0.470   4.938   0.428  0.9945 -1.2165  0.5665
 1048SOL     OW 3735   0.671   0.729   0.492 -0.3230  0.3749 -0.3674
 1048SOL    HW1 3736   0.661   0.663   0.424 -0.2109  0.4627 -0.4696
 1048SOL    HW2 3737   0.724   0.798   0.452 -0.4173  0.5159 -0.2537
 1049SOL     OW 3738   0.101   4.764   2.297  0.5734  0.1209 -0.2934
 1049SOL    HW1 3739   0.189   4.732   2.280  1.3057  0.3651  2.5186
 1049SOL    HW2 3740   0.092   4.761   2.392 -3.3533 -2.1764 -0.5244
 1050SOL     OW 3741   0.585   4.452   2.503 -0.2178  0.1029 -0.2781
 1050SOL    HW1 3742   0.531   4.392   2.451 -1.5194  0.7013  0.3392
 1050SOL    HW2 3743   0.631   4.395   2.564 -0.5843 -0.3764 -0.4359
 1051SOL     OW 3744   6.750   4.903   2.953  0.2421  0.7417  0.5787
 1051SOL    HW1 3745   6.745   4.951   2.870  0.3451  1.7068  1.1267
 1051SOL    HW2 3746   6.713   4.962   3.018  2.1235  0.8517  1.6038
 1052SOL     OW 3747   0.908   1.592   0.661  0.1955 -0.1005  0.5005
 1052SOL    HW1 3748   0.825   1.554   0.632 -1.3884  1.7901  2.3027
 1052SOL    HW2 3749   0.893   1.686   0.663  2.2287  0.2635  1.3173
 1053SOL     OW 3750   3.382   3.060   0.896 -0.5210 -0.0023  0.1427
 1053SOL    HW1 3751   3.349   2.978   0.859 -2.1761 -0.0628  1.5980
 1053SOL    HW2 3752   3.306   3.118   0.895  0.7288  1.7031 -1.2596
 1054SOL     OW 3753   1.744   3.896   2.490  0.4058 -0.3022 -0.4483
 1054SOL    HW1 3754   1.782   3.900   2.403  0.0572  1.1547 -0.5494
 1054SOL    HW2 3755   1.673   3.960   2.489 -0.8648 -1.6091  0.3148
 1055SOL     OW 3756   0.651   0.432   3.293  0.1956  0.1849 -0.6286
 1055SOL    HW1 3757   0.625   0.496   3.226  2.8041  1.0844 -0.8997
 1055SOL    HW2 3758   0.633   0.476   3.376 -0.3363  0.2568 -0.7791
 1056SOL     OW 3759   2.390   0.242   0.124  0.2333 -0.1614 -0.0672
 1056SOL    HW1 3760   2.437   0.203   0.050 -1.3928 -0.7556 -0.8403
 1056SOL    HW2 3761   2.372   0.331   0.096  0.8259  0.0440  0.1993
 1057SOL     OW 3762   6.881   4.095   2.231 -0.2631  0.5485  0.1766
 1057SOL    HW1 3763   6.803   4.082   2.285 -1.2492  0.5752 -1.1825
 1057SOL    HW2 3764   6.868   4.180   2.189 -0.0647  0.0557 -0.9415
 1058SOL     OW 3765   7.394   4.620   1.899  0.0634  0.4357 -0.5659
 1058SOL    HW1 3766   7.391   4.567   1.819 -0.1099  2.3150 -1.8753
 1058SOL    HW2 3767   7.302   4.633   1.922  0.1176 -0.3312  0.1272
 1059SOL     OW 3768   1.381   3.862   2.516  0.1167  0.1550 -0.5321
 1059SOL    HW1 3769   1.313   3.925   2.492 -1.2217 -0.7463  0.7567
 1059SOL    HW2 3770   1.421   3.899   2.595 -1.1233 -0.8642  0.6242
 1060SOL     OW 3771   2.762   0.391   2.365  0.6072 -0.2630  0.2316
 1060SOL    HW1 3772   2.730   0.464   2.418 -1.2269  0.4793 -1.7581
 1060SOL    HW2 3773   2.764   0.317   2.426 -1.4405  0.5429  1.3986
 1061SOL     OW 3774   1.615   2.232   2.341 -0.5778 -0.2815  0.2496
 1061SOL    HW1 3775   1.678   2.288   2.386  0.9373 -0.7256 -1.2168
 1061SOL    HW2 3776   1.633   2.144   2.375 -1.1064 -0.2650  0.5740
 1062SOL     OW 3777   1.665   0.805   1.795 -0.0478 -0.0740  0.0022
 1062SOL    HW1 3778   1.714   0.885   1.813 -0.2712  0.0760 -0.0545
 1062SOL    HW2 3779   1.688   0.746   1.867 -1.7417  0.8843  1.3927
 1063SOL     OW 3780   3.255   3.755   1.845 -0.1748 -0.4711 -0.3388
 1063SOL    HW1 3781   3.335   3.752   1.792  0.0968  1.5142 -0.1166
 1063SOL    HW2 3782   3.250   3.845   1.876 -1.5856 -0.9987  1.1126
 1064SOL     OW 3783   6.226   5.187   2.085  0.5036  0.2022 -0.1162
 1064SOL    HW1 3784   6.184   5.182   1.999  1.8419 -0.7005 -0.7541
 1064SOL    HW2 3785   6.318   5.204   2.065  0.7231  0.5921  1.1765
 1065SOL     OW 3786   1.838   4.240   2.984 -0.3838 -0.2072 -0.5009
 1065SOL    HW1 3787   1.906   4.188   3.027 -0.6734  0.2243  0.5336
 1065SOL    HW2 3788   1.825   4.198   2.899  1.8738  0.2865 -1.1653
 1066SOL     OW 3789   2.061   4.881   0.383 -0.4283 -0.1703 -0.5779
 1066SOL    HW1 3790   2.080   4.803   0.436  0.0915  0.6461  0.4839
 1066SOL    HW2 3791   2.046   4.847   0.295 -0.0035 -1.4525 -0.1836
 1067SOL     OW 3792   0.904   5.035   0.151 -0.4011 -0.3105 -0.2535
 1067SOL    HW1 3793   0.973   5.087   0.109 -0.7409 -0.7839 -1.4493
 1067SOL    HW2 3794   0.937   5.016   0.238  0.1632  1.0600 -0.1395
 1068SOL     OW 3795   5.364   0.014   0.190 -0.1142  0.2207 -0.5340
 1068SOL    HW1 3796   5.326   0.001   0.277  0.9272  0.0672 -0.0914
 1068SOL    HW2 3797   5.458   0.020   0.205  0.0265  0.9098 -1.5778
 1069SOL     OW 3798   5.822   0.774   1.665 -0.0039 -0.5501 -0.1580
 1069SOL    HW1 3799   5.843   0.751   1.574  0.9733 -1.4845  0.2855
 1069SOL    HW2 3800   5.856   0.863   1.676 -1.3973  0.1406 -1.0985
 1070SOL     OW 3801   2.418   4.286   1.787 -0.3377  0.2837 -0.6504
 1070SOL    HW1 3802   2.441   4.270   1.878  0.0889  1.2629 -0.5724
 1070SOL    HW2 3803   2.463   4.217   1.738  3.5311  2.4616 -0.5994
 1071SOL     OW 3804   2.090   4.468   3.516 -0.0282  0.5242  0.3980
 1071SOL    HW1 3805   2.063   4.501   3.601  0.0088  0.0074  0.6143
 1071SOL    HW2 3806   2.039   4.519   3.453  0.3709  1.3037  0.7037
 1072SOL     OW 3807   3.048   0.079   0.211  0.0386  0.2355  0.3851
 1072SOL    HW1 3808   3.096  -0.004   0.205 -0.0646  0.1374  0.8703
 1072SOL    HW2 3809   3.073   0.127   0.132  0.7035  0.0603  0.4800
 1073SOL     OW 3810   2.059   4.873   2.901 -0.2077  0.4957 -0.3911
 1073SOL    HW1 3811   2.021   4.939   2.843  0.0242 -0.5369 -1.7672
 1073SOL    HW2 3812   2.153   4.876   2.883 -0.1446  0.0929 -0.1503
 1074SOL     OW 3813   1.806   0.764   2.375  0.1861  0.7264 -0.3322
 1074SOL    HW1 3814   1.827   0.782   2.467  0.6579 -1.6563  0.0842
 1074SOL    HW2 3815   1.860   0.689   2.352 -1.2208  0.1655 -2.0333
 1075SOL     OW 3816   7.041   4.589   0.834  0.2801  0.2170 -0.1249
 1075SOL    HW1 3817   6.991   4.667   0.859 -0.1121 -0.0528 -0.0601
 1075SOL    HW2 3818   7.113   4.585   0.898 -0.3064 -0.0679  0.5295
 1076SOL     OW 3819   1.495   3.362   0.642 -0.1253  0.0169  0.1587
 1076SOL    HW1 3820   1.504   3.457   0.633 -1.5636  0.1445 -0.2060
 1076SOL    HW2 3821   1.569   3.326   0.593 -0.7235  0.9378 -1.5215
 1077SOL     OW 3822   2.460   5.130   2.936 -0.0115 -0.3210 -0.1638
 1077SOL    HW1 3823   2.446   5.181   3.016  0.4187 -0.2331 -0.1433
 1077SOL    HW2 3824   2.553   5.111   2.935 -0.0204 -0.3595 -0.6255
 1078SOL     OW 3825   2.165   2.868   3.441  0.0081  0.6928 -0.1830
 1078SOL    HW1 3826   2.090   2.925   3.425  0.3035  0.8125 -1.1990
 1078SOL    HW2 3827   2.236   2.909   3.392  0.2270 -0.5687 -0.9408
 1079SOL     OW 3828   0.864   3.271   0.182  0.3015  0.1075  0.0713
 1079SOL    HW1 3829   0.886   3.360   0.155  1.7697 -1.0508 -2.9965
 1079SOL    HW2 3830   0.795   3.244   0.121  0.7506 -1.2532  0.1346
 1080SOL     OW 3831   7.101   3.612   0.086  0.5497 -0.1065 -0.4151
 1080SOL    HW1 3832   7.031   3.626   0.150  0.1546 -1.3428 -0.5551
 1080SOL    HW2 3833   7.177   3.655   0.124  0.1343 -0.1715  0.5238
 1081SOL     OW 3834   0.112   0.971   0.799 -0.3153 -0.5053 -0.1230
 1081SOL    HW1 3835   0.197   1.011   0.780 -1.0537  0.8212 -0.7802
 1081SOL    HW2 3836   0.128   0.916   0.876  1.0124  0.1511  0.0984
 1082SOL     OW 3837   7.002   0.406   1.939  0.1022  0.1560 -0.7914
 1082SOL    HW1 3838   7.080   0.384   1.990  1.2005 -0.5364 -2.6410
 1082SOL    HW2 3839   6.940   0.336   1.959 -0.4665  1.2005  1.3979
 1083SOL     OW 3840   0.109   4.315   1.599 -1.1429 -0.3888  0.0167
 1083SOL    HW1 3841   0.104   4.265   1.518  0.8958  0.8079 -0.9643
 1083SOL    HW2 3842   0.174   4.383   1.580  0.2308 -0.7043  2.9925
 1084SOL     OW 3843   2.200   4.976   1.861 -0.6683  0.8006 -0.1263
 1084SOL    HW1 3844   2.192   4.946   1.952  0.7106  2.5332  0.6175
 1084SOL    HW2 3845   2.254   4.910   1.819 -0.8193  0.2841  0.4685
 1085SOL     OW 3846   0.412   3.624   1.997  0.7143  0.0183  0.2571
 1085SOL    HW1 3847   0.422   3.530   1.983  1.6252 -0.2103  2.1945
 1085SOL    HW2 3848   0.372   3.656   1.916 -0.4456 -2.1584 -0.0970
 1086SOL     OW 3849   2.855   2.107   2.529  0.7349 -0.1538 -0.3565
 1086SOL    HW1 3850   2.875   2.088   2.437  0.4570  1.6888 -0.8470
 1086SOL    HW2 3851   2.940   2.107   2.572  0.8941 -0.7931 -0.6541
 1087SOL     OW 3852   3.378   0.570   2.292 -0.0656 -0.4980 -0.1874
 1087SOL    HW1 3853   3.390   0.570   2.387 -1.4525 -0.1859  0.0166
 1087SOL    HW2 3854   3.351   0.481   2.271 -2.3261  0.0386  0.1310
 1088SOL     OW 3855   2.535   3.007   2.730 -0.1271 -0.0351 -0.1184
 1088SOL    HW1 3856   2.486   2.925   2.740 -1.4376  0.9056  1.6779
 1088SOL    HW2 3857   2.542   3.019   2.636  0.0160 -2.1364 -0.4380
 1089SOL     OW 3858   7.305   4.537   0.915  0.0966  0.6377  0.1153
 1089SOL    HW1 3859   7.348   4.454   0.894  1.5336  1.5940 -0.8762
 1089SOL    HW2 3860   7.366   4.582   0.973 -0.7501  0.9556  0.7933
 1090SOL     OW 3861   1.527   4.008   2.689  0.6086 -0.4725  0.2266
 1090SOL    HW1 3862   1.535   4.088   2.638  2.4760  0.4976  1.8844
 1090SOL    HW2 3863   1.445   4.018   2.738  0.4403  0.0534 -0.1625
 1091SOL     OW 3864   0.421   5.024   0.997  0.2263  0.1704  0.4348
 1091SOL    HW1 3865   0.472   5.094   0.957  0.1551  0.3563  0.6642
 1091SOL    HW2 3866   0.372   5.067   1.067 -1.8371  0.3962 -1.0654
 1092SOL     OW 3867   0.038   3.465   0.356 -0.3061 -0.0822 -0.2083
 1092SOL    HW1 3868  -0.035   3.517   0.389 -0.6778 -0.0121 -1.1057
 1092SOL    HW2 3869   0.075   3.517   0.284  0.1606 -0.4502 -0.2444
 1093SOL     OW 3870   6.515   0.662   1.856  0.6464 -0.3227 -0.3614
 1093SOL    HW1 3871   6.561   0.590   1.898 -0.4281 -0.2541  1.0399
 1093SOL    HW2 3872   6.444   0.621   1.807  0.7677 -0.2902 -0.5647
 1094SOL     OW 3873   0.238   4.973   2.648  0.6895 -0.0787  0.6818
 1094SOL    HW1 3874   0.326   4.944   2.670  0.9120 -0.4202 -0.6013
 1094SOL    HW2 3875   0.198   4.898   2.602  0.9199  1.1821 -1.7558
 1095SOL     OW 3876   1.493   5.043   1.194 -0.3299 -0.0505 -0.4996
 1095SOL    HW1 3877   1.582   5.016   1.173  0.1643 -0.2070  1.5567
 1095SOL    HW2 3878   1.437   4.977   1.153  0.6070 -0.9450 -0.3687
 1096SOL     OW 3879   0.671   2.788   1.292  0.3210  0.1725 -0.1421
 1096SOL    HW1 3880   0.577   2.783   1.306  0.0818 -0.9052 -1.8588
 1096SOL    HW2 3881   0.701   2.697   1.292  1.2819  0.4717 -0.1060
 1097SOL     OW 3882   1.313   4.387   2.210  0.0798  0.1093 -0.3063
 1097SOL    HW1 3883   1.279   4.336   2.136 -0.2196  0.2761 -0.2845
 1097SOL    HW2 3884   1.395   4.423   2.178 -1.3359  2.4776 -1.5504
 1098SOL     OW 3885   1.530   4.796   1.567  0.0762 -0.1187  0.2600
 1098SOL    HW1 3886   1.500   4.871   1.619 -0.9320 -1.0321  1.0345
 1098SOL    HW2 3887   1.468   4.790   1.494  1.4638  1.1346 -1.1008
 1099SOL     OW 3888   1.042   4.478   0.775  0.0316 -0.2542  0.0584
 1099SOL    HW1 3889   0.947   4.469   0.778 -0.0241  0.3787  0.3808
 1099SOL    HW2 3890   1.071   4.408   0.717 -0.6116 -0.5976  0.1428
 1100SOL     OW 3891   6.556   0.552   3.308  0.6402 -0.4084  0.1324
 1100SOL    HW1 3892   6.632   0.515   3.353  0.9739  0.2433  0.1166
 1100SOL    HW2 3893   6.537   0.491   3.237  0.0743 -1.4848  1.1695
 1101SOL     OW 3894   1.633   3.678   3.081 -0.0639 -0.6951 -0.4016
 1101SOL    HW1 3895   1.555   3.683   3.027 -0.4244  1.2836  0.2095
 1101SOL    HW2 3896   1.640   3.765   3.122  0.5693 -1.8647  2.1812
 1102SOL     OW 3897   0.133   4.723   2.590 -0.0886 -0.6297  0.3473
 1102SOL    HW1 3898   0.050   4.742   2.634  0.4078 -0.6201  1.3154
 1102SOL    HW2 3899   0.165   4.644   2.633  1.4477  0.5747  1.5524
 1103SOL     OW 3900   1.462   0.061   1.256  0.0481  0.1449  1.1783
 1103SOL    HW1 3901   1.414   0.099   1.182 -1.3523  0.9607  2.4312
 1103SOL    HW2 3902   1.453  -0.034   1.244 -2.5057  0.2460  1.6607
 1104SOL     OW 3903   0.698   4.249   2.676 -0.5541 -0.4248 -0.3587
 1104SOL    HW1 3904   0.621   4.203   2.710 -1.3079 -0.1942 -1.6743
 1104SOL    HW2 3905   0.760   4.180   2.654  0.2123 -0.5640  1.9510
 1105SOL     OW 3906   0.349   0.366   1.415  0.2113  0.8370  0.1463
 1105SOL    HW1 3907   0.396   0.438   1.372 -0.7352 -0.0492 -2.6039
 1105SOL    HW2 3908   0.270   0.354   1.362  0.6167 -2.5848  0.1205
 1106SOL     OW 3909   2.520   0.516   3.405 -0.2799 -0.2846  0.5649
 1106SOL    HW1 3910   2.533   0.488   3.314  0.2754  0.4637  0.3953
 1106SOL    HW2 3911   2.427   0.502   3.422 -1.1868  2.6153 -1.2435
 1107SOL     OW 3912   1.778   1.033   1.982 -0.5418 -0.1346 -0.5799
 1107SOL    HW1 3913   1.834   0.966   2.022 -0.5040  0.0755 -0.2726
 1107SOL    HW2 3914   1.815   1.116   2.013  0.6010  0.1253 -2.5002
 1108SOL     OW 3915   6.803   0.330   3.083 -0.3765  0.1651 -0.1558
 1108SOL    HW1 3916   6.803   0.245   3.040 -0.6128 -0.3343  0.8088
 1108SOL    HW2 3917   6.771   0.313   3.172 -0.7550  1.3079 -0.0506
 1109SOL     OW 3918   0.393   4.223   2.664 -0.4519 -0.5088  0.3278
 1109SOL    HW1 3919   0.418   4.218   2.572  0.4396  1.3551  0.4100
 1109SOL    HW2 3920   0.400   4.133   2.696  0.5257 -0.9840 -1.1176
 1110SOL     OW 3921   2.988   5.000   2.318  0.0601  0.3068 -0.2504
 1110SOL    HW1 3922   2.905   5.046   2.332  0.1506 -0.1224  2.1551
 1110SOL    HW2 3923   3.038   5.017   2.398  3.0831  2.0391 -2.3129
 1111SOL     OW 3924   0.864   3.934   2.918  0.8099 -0.5717  0.2240
 1111SOL    HW1 3925   0.846   3.917   3.011  0.9918  0.2195  0.4065
 1111SOL    HW2 3926   0.778   3.940   2.878  0.7297 -1.4201  0.2362
 1112SOL     OW 3927   1.338   0.334   1.186  0.8849  0.2584 -0.1944
 1112SOL    HW1 3928   1.380   0.390   1.252 -0.3383 -0.2514  1.0678
 1112SOL    HW2 3929   1.248   0.325   1.217  0.6086 -1.0063 -1.3000
 1113SOL     OW 3930   7.309   4.797   2.709  0.0111  0.2393  0.3666
 1113SOL    HW1 3931   7.293   4.792   2.803 -1.7784  2.5682  0.2671
 1113SOL    HW2 3932   7.272   4.716   2.674  0.7402 -0.6802  1.6325
 1114SOL     OW 3933   2.126   2.645   3.276 -0.3619  0.3566  0.4084
 1114SOL    HW1 3934   2.149   2.708   3.345  0.3815  0.7530 -0.1793
 1114SOL    HW2 3935   2.032   2.632   3.287 -0.6366  1.9421  0.2637
 1115SOL     OW 3936   2.992   3.102   2.034 -0.0104 -0.5668  0.1786
 1115SOL    HW1 3937   2.902   3.092   2.001  0.4282 -1.5755 -0.7459
 1115SOL    HW2 3938   2.981   3.115   2.128 -1.2464  1.3977 -0.1533
 1116SOL     OW 3939   2.089   4.081   3.238 -0.4533 -0.5791 -0.2780
 1116SOL    HW1 3940   2.119   4.166   3.270 -2.0855  0.4413 -1.2913
 1116SOL    HW2 3941   2.115   4.080   3.146  0.4455 -1.6335 -0.0251
 1117SOL     OW 3942   0.548   3.710   3.163  0.3815 -0.2120  0.3304
 1117SOL    HW1 3943   0.576   3.722   3.072  0.4065 -0.9389  0.2362
 1117SOL    HW2 3944   0.453   3.698   3.157  0.4088 -0.4450  0.3869
 1118SOL     OW 3945   0.001   1.165   1.720 -0.0263 -0.0649  0.2485
 1118SOL    HW1 3946  -0.021   1.137   1.809 -1.1867  2.8307  1.0080
 1118SOL    HW2 3947  -0.082   1.164   1.673  0.4897 -1.0470 -0.6973
 1119SOL     OW 3948   2.776   5.014   3.412  0.5122  0.8377  0.4392
 1119SOL    HW1 3949   2.780   5.064   3.494  1.2584  0.7290  0.4717
 1119SOL    HW2 3950   2.684   4.990   3.404  0.2810  1.5395  0.8339
 1120SOL     OW 3951   0.943   3.977   0.296  0.2948 -0.0616  0.3621
 1120SOL    HW1 3952   0.874   3.933   0.246 -0.0629  0.1257  0.6891
 1120SOL    HW2 3953   0.903   4.060   0.324  1.1219  0.7144 -0.6806
 1121SOL     OW 3954   0.529   4.062   2.849 -0.4226 -0.1641  0.5107
 1121SOL    HW1 3955   0.543   3.967   2.844  0.2932 -0.0316 -0.1457
 1121SOL    HW2 3956   0.576   4.089   2.927  0.5866 -0.1506 -0.0865
 1122SOL     OW 3957   0.609   0.642   2.811 -0.0498  0.0360 -0.4023
 1122SOL    HW1 3958   0.691   0.661   2.855 -0.8088  0.0006  1.1101
 1122SOL    HW2 3959   0.577   0.562   2.853 -1.1121  0.3411 -0.5961
 1123SOL     OW 3960   6.421   4.555   2.183 -0.1922 -0.2723 -0.6448
 1123SOL    HW1 3961   6.390   4.641   2.154  0.9048  0.6269  0.7214
 1123SOL    HW2 3962   6.508   4.572   2.218 -0.2620 -1.8114  0.3479
 1124SOL     OW 3963   2.162   4.360   2.294 -0.2399  0.7240  0.1902
 1124SOL    HW1 3964   2.204   4.427   2.348  2.7770 -0.5101 -0.4632
 1124SOL    HW2 3965   2.204   4.278   2.319 -1.1875 -0.3982 -1.6538
 1125SOL     OW 3966   7.119   3.883   1.062  0.3232 -0.0256  0.3066
 1125SOL    HW1 3967   7.193   3.903   1.004 -0.1211 -1.5716 -0.8577
 1125SOL    HW2 3968   7.064   3.825   1.010 -0.4002 -0.9827  2.0949
 1126SOL     OW 3969   1.216   4.366   2.777 -0.0997 -0.2240 -0.0677
 1126SOL    HW1 3970   1.126   4.396   2.786  0.2622  0.9229 -0.0976
 1126SOL    HW2 3971   1.269   4.441   2.805  0.8398 -0.9831  0.2397
 1127SOL     OW 3972   1.644   4.372   0.950  0.4402  0.2785  0.2654
 1127SOL    HW1 3973   1.712   4.345   0.888 -0.0759  0.2487 -0.2971
 1127SOL    HW2 3974   1.562   4.344   0.910  0.0654  0.6321  0.7655
 1128SOL     OW 3975   5.169   4.690   1.367 -0.0355  0.2285  0.4276
 1128SOL    HW1 3976   5.093   4.679   1.310  0.1853 -0.6472  0.2911
 1128SOL    HW2 3977   5.133   4.720   1.450 -0.4493  0.5583  0.1352
 1129SOL     OW 3978   1.422   3.799   0.030  0.1222 -0.3718 -0.2817
 1129SOL    HW1 3979   1.366   3.861   0.077  0.3943 -1.0573  0.9960
 1129SOL    HW2 3980   1.375   3.782  -0.052 -0.0208  1.3999 -0.5994
 1130SOL     OW 3981   6.212   4.365   2.312 -0.0499 -0.5046  0.3129
 1130SOL    HW1 3982   6.134   4.387   2.263 -0.1273  0.0105  0.6553
 1130SOL    HW2 3983   6.285   4.394   2.257  0.0284 -3.2156 -1.1357
 1131SOL     OW 3984   1.123   4.380   1.393 -0.1743  0.0747 -0.0047
 1131SOL    HW1 3985   1.106   4.288   1.414 -1.7406  0.9152  2.9674
 1131SOL    HW2 3986   1.215   4.393   1.417  0.4086 -0.9251 -1.5531
 1132SOL     OW 3987   1.998   5.158   0.919  0.6230  0.5141  0.4474
 1132SOL    HW1 3988   2.081   5.113   0.929 -0.5774 -1.4823  2.0890
 1132SOL    HW2 3989   1.988   5.210   0.999  1.5632  3.1797 -1.0143
 1133SOL     OW 3990   1.037   4.660   0.550  0.2134  0.2424 -0.2237
 1133SOL    HW1 3991   1.037   4.605   0.628 -1.5551  1.2009  0.5261
 1133SOL    HW2 3992   1.091   4.736   0.574 -0.4919  0.6311  0.1594
 1134SOL     OW 3993   0.274   2.777   2.444  0.0868  0.2189  0.1276
 1134SOL    HW1 3994   0.243   2.709   2.385 -2.2974  0.5707  0.8596
 1134SOL    HW2 3995   0.303   2.730   2.522  1.1990 -0.1005 -0.4583
 1135SOL     OW 3996   3.241   5.082   3.328 -0.3106  0.4413  0.1349
 1135SOL    HW1 3997   3.265   5.072   3.236 -0.3719 -0.3474  0.2030
 1135SOL    HW2 3998   3.148   5.058   3.331  0.1684 -1.4819  0.7276
 1136SOL     OW 3999   0.450   4.549   0.602  0.2523 -0.2493  0.0684
 1136SOL    HW1 4000   0.483   4.594   0.523  0.6699  0.0432  0.4066
 1136SOL    HW2 4001   0.354   4.556   0.594  0.3025  0.9799  0.2567
 1137SOL     OW 4002   2.061   4.105   2.276 -0.3398  0.1898  0.6772
 1137SOL    HW1 4003   2.037   4.098   2.368 -2.4472 -1.3540  0.1023
 1137SOL    HW2 4004   2.054   4.198   2.256 -1.7901  0.3258  1.6428
 1138SOL     OW 4005   4.408   4.113   0.859 -0.4217 -0.1892 -0.8809
 1138SOL    HW1 4006   4.338   4.075   0.911 -1.3928 -1.0880 -2.7328
 1138SOL    HW2 4007   4.365   4.143   0.779  0.9908  1.1682 -1.1814
 1139SOL     OW 4008   0.433   3.814   2.555 -0.0949  0.0856  0.1807
 1139SOL    HW1 4009   0.369   3.860   2.501  0.0447  0.5813  0.4275
 1139SOL    HW2 4010   0.397   3.726   2.567 -1.2165  0.6590  1.1601
 1140SOL     OW 4011   1.807   4.773   1.873  0.2551 -0.2174  0.2564
 1140SOL    HW1 4012   1.745   4.827   1.825  1.5984  0.8409 -0.3313
 1140SOL    HW2 4013   1.884   4.767   1.817  0.9850 -0.8902  1.2764
 1141SOL     OW 4014  -0.032   3.037   3.229  0.1096 -0.7048 -0.6926
 1141SOL    HW1 4015  -0.031   2.992   3.145  1.6914  0.6056 -1.4261
 1141SOL    HW2 4016   0.005   2.974   3.291 -1.1206 -1.6959 -0.9168
 1142SOL     OW 4017   3.669   0.162   3.438  0.1264  0.2764  0.4837
 1142SOL    HW1 4018   3.600   0.103   3.409  0.2130 -0.0280  0.8867
 1142SOL    HW2 4019   3.731   0.106   3.485  0.3178  0.6480  0.6849
 1143SOL     OW 4020   0.713   3.860   2.053  0.3832 -0.2204  0.0575
 1143SOL    HW1 4021   0.795   3.822   2.022 -0.0059  0.8542 -2.5817
 1143SOL    HW2 4022   0.718   3.952   2.026  0.0805  1.0069  3.6666
 1144SOL     OW 4023   0.609   0.866   0.905 -0.7429  0.3309  0.5865
 1144SOL    HW1 4024   0.650   0.782   0.925  0.5926  0.8143 -0.0518
 1144SOL    HW2 4025   0.560   0.850   0.824 -2.1867 -0.3418  1.5425
 1145SOL     OW 4026   1.804   4.914   2.743 -0.0331  0.6218 -0.4793
 1145SOL    HW1 4027   1.740   4.858   2.698  0.2616  0.1998 -0.3805
 1145SOL    HW2 4028   1.869   4.935   2.676  0.0206  0.5900 -0.4370
 1146SOL     OW 4029   0.000   0.224   1.666 -1.0290 -0.0842 -0.2567
 1146SOL    HW1 4030   0.046   0.186   1.591 -0.9122 -0.1441 -0.1556
 1146SOL    HW2 4031   0.033   0.175   1.742 -0.8667  0.2277 -0.1235
 1147SOL     OW 4032   2.535   0.250   2.964  0.0895 -0.1874  0.2334
 1147SOL    HW1 4033   2.468   0.259   3.032  0.0596 -0.0081  0.1788
 1147SOL    HW2 4034   2.488   0.215   2.889 -0.6139  2.8777 -0.8718
 1148SOL     OW 4035   1.509   4.035   3.051 -0.3594  0.5244  0.2396
 1148SOL    HW1 4036   1.555   4.073   2.976  0.1223 -0.9523 -0.2444
 1148SOL    HW2 4037   1.417   4.034   3.024 -0.1163 -0.5684 -0.6164
 1149SOL     OW 4038   1.229   0.463   3.102 -0.5862 -0.3301  0.4726
 1149SOL    HW1 4039   1.310   0.509   3.122 -1.1751  0.9349  0.0432
 1149SOL    HW2 4040   1.226   0.391   3.166  0.5335 -0.0107  0.9124
 1150SOL     OW 4041   1.688   3.380   2.811 -0.1860  0.0854  0.4496
 1150SOL    HW1 4042   1.647   3.328   2.743 -0.7486  0.1633  0.7215
 1150SOL    HW2 4043   1.692   3.322   2.887 -1.3217  0.5854  0.9242
 1151SOL     OW 4044   0.977   3.340   2.966  0.4437 -0.0530 -0.2635
 1151SOL    HW1 4045   0.890   3.332   2.927 -0.7134  0.6446  1.9764
 1151SOL    HW2 4046   1.012   3.251   2.963 -0.4019 -0.3802 -1.0651
 1152SOL     OW 4047   1.982   5.261   2.537  0.6899  0.2656  0.3534
 1152SOL    HW1 4048   1.989   5.294   2.447 -3.3582  1.1446  0.1757
 1152SOL    HW2 4049   1.999   5.167   2.530  0.4051  0.3062 -1.3773
 1153SOL     OW 4050   2.292   0.220   2.715  0.4029 -0.4278 -0.0870
 1153SOL    HW1 4051   2.328   0.268   2.641  1.4661 -1.4793 -0.2862
 1153SOL    HW2 4052   2.230   0.158   2.676 -0.0262 -0.0948  0.0491
 1154SOL     OW 4053   0.931   3.156   0.731  0.6082 -0.1677  0.8682
 1154SOL    HW1 4054   0.913   3.250   0.736 -0.1100 -0.0608 -1.9175
 1154SOL    HW2 4055   0.846   3.115   0.749  0.0381 -0.0784 -1.3066
 1155SOL     OW 4056   6.745   4.507   2.409  0.5709 -0.3905  0.6994
 1155SOL    HW1 4057   6.806   4.581   2.402  0.6110 -0.5423 -0.8679
 1155SOL    HW2 4058   6.723   4.503   2.502  2.9439 -0.3107  1.3315
 1156SOL     OW 4059   6.948   5.183   1.889 -0.3952  0.1221 -0.1079
 1156SOL    HW1 4060   6.968   5.090   1.880 -2.8352 -0.6231  1.2685
 1156SOL    HW2 4061   6.982   5.207   1.976  4.0597  1.7731 -2.0017
 1157SOL     OW 4062   6.603   4.820   1.741  0.2853  0.0109 -0.5561
 1157SOL    HW1 4063   6.666   4.817   1.669  1.0661  0.8937  0.0681
 1157SOL    HW2 4064   6.592   4.729   1.768 -0.3302 -0.3810 -2.0344
 1158SOL     OW 4065   2.110   4.719   2.165  0.1372  0.8849  0.3627
 1158SOL    HW1 4066   2.155   4.731   2.249  0.2298  3.9019 -0.0097
 1158SOL    HW2 4067   2.050   4.794   2.159 -1.8372 -0.7075 -1.0953
 1159SOL     OW 4068   1.858   0.262   2.867 -0.0035 -0.6613  0.2759
 1159SOL    HW1 4069   1.852   0.179   2.914 -2.0701  0.0498  1.3890
 1159SOL    HW2 4070   1.897   0.323   2.930  4.5603 -1.3125 -1.5056
 1160SOL     OW 4071   0.107   5.198   3.423  0.3481  0.1648 -0.0662
 1160SOL    HW1 4072   0.139   5.110   3.402  0.1842  0.2932 -0.8893
 1160SOL    HW2 4073   0.032   5.183   3.482  0.0378 -0.2706 -0.5641
 1161SOL     OW 4074   0.330   1.880   2.834 -0.0293  0.0939 -0.5126
 1161SOL    HW1 4075   0.307   1.953   2.776  0.3915 -0.0434 -0.8541
 1161SOL    HW2 4076   0.336   1.804   2.777  0.9611  0.0683 -0.3900
 1162SOL     OW 4077   2.714   2.737   0.802 -0.5858 -0.5698  0.3559
 1162SOL    HW1 4078   2.631   2.710   0.842 -0.7268 -1.5579 -0.5586
 1162SOL    HW2 4079   2.714   2.833   0.810 -0.9757 -0.6803  1.9576
 1163SOL     OW 4080   1.652   0.472   2.989  0.1615  0.0058  0.3390
 1163SOL    HW1 4081   1.674   0.564   3.000  0.6653 -0.0439 -0.2449
 1163SOL    HW2 4082   1.736   0.426   2.997  0.1672 -0.2566 -1.0647
 1164SOL     OW 4083   5.416   1.012   2.638 -0.0814 -0.2719  0.4626
 1164SOL    HW1 4084   5.429   1.102   2.607  0.1335  0.2521  1.9921
 1164SOL    HW2 4085   5.325   1.009   2.667  0.3221 -0.0910  1.7897
 1165SOL     OW 4086   1.651   4.537   1.163 -0.0948  0.5316 -0.4136
 1165SOL    HW1 4087   1.668   4.627   1.134 -1.9586  0.8951 -0.5396
 1165SOL    HW2 4088   1.634   4.489   1.082 -2.8832  0.9961 -0.2271
 1166SOL     OW 4089   4.195   0.256   1.027  0.3412 -0.5861 -0.6787
 1166SOL    HW1 4090   4.175   0.165   1.049 -1.1854 -0.2952 -0.7644
 1166SOL    HW2 4091   4.213   0.298   1.112  0.8046 -0.8960 -0.6176
 1167SOL     OW 4092   1.352   0.524   0.212 -0.5567  0.6103 -0.1658
 1167SOL    HW1 4093   1.444   0.549   0.205 -0.5829  0.2460 -3.6326
 1167SOL    HW2 4094   1.305   0.607   0.214 -0.1907  0.7996  1.6727
 1168SOL     OW 4095   2.854   2.422   2.480  0.6286  0.1762 -0.3181
 1168SOL    HW1 4096   2.909   2.374   2.418  0.6098  0.5923 -0.6586
 1168SOL    HW2 4097   2.769   2.428   2.437  0.8331  1.1612 -0.6081
 1169SOL     OW 4098   4.070   4.763   2.680 -0.4419 -0.3610  0.3986
 1169SOL    HW1 4099   4.065   4.758   2.776 -0.4676  1.7652  0.5744
 1169SOL    HW2 4100   4.002   4.826   2.656  1.1682  1.0727 -0.7166
 1170SOL     OW 4101   3.302   5.274   1.643  0.3867 -0.0534 -0.2338
 1170SOL    HW1 4102   3.264   5.263   1.555 -2.5386  0.7684  0.7799
 1170SOL    HW2 4103   3.344   5.191   1.662 -2.0237 -1.5685 -1.0889
 1171SOL     OW 4104   2.970   0.902   0.912 -0.1014  0.0136  0.4326
 1171SOL    HW1 4105   2.960   0.866   0.824  2.4417  1.9749 -0.7826
 1171SOL    HW2 4106   2.906   0.974   0.915 -0.4730 -0.3085  0.3623
 1172SOL     OW 4107   2.387   1.409   3.109 -0.1669  0.0480 -0.4574
 1172SOL    HW1 4108   2.294   1.405   3.087 -0.8494  2.2257  1.5773
 1172SOL    HW2 4109   2.395   1.354   3.187 -0.0059  0.6952 -0.0046
 1173SOL     OW 4110   2.768   0.141   1.319 -0.6891  0.0927 -0.1582
 1173SOL    HW1 4111   2.754   0.222   1.271  1.3212  2.2893  2.5832
 1173SOL    HW2 4112   2.690   0.131   1.373 -0.1558  1.3731  0.9073
 1174SOL     OW 4113   1.966   1.943   2.144  0.4593 -0.4004 -0.2637
 1174SOL    HW1 4114   2.013   2.023   2.119  1.8937 -1.4938 -1.1816
 1174SOL    HW2 4115   1.970   1.887   2.066  0.1014 -1.6603  0.5949
 1175SOL     OW 4116   1.717   1.618   2.199  0.0066 -0.1919  0.2941
 1175SOL    HW1 4117   1.727   1.523   2.196  0.9911 -0.0706 -1.6195
 1175SOL    HW2 4118   1.805   1.651   2.217 -0.4051  0.3779  1.3935
 1176SOL     OW 4119   1.728   1.437   2.450 -0.1795  0.3099 -0.5304
 1176SOL    HW1 4120   1.656   1.396   2.400 -0.0534 -2.1343  1.1079
 1176SOL    HW2 4121   1.804   1.382   2.431  0.6042  1.2063 -0.0470
 1177SOL     OW 4122   2.684   0.002   1.562  0.0607 -0.4555 -0.6186
 1177SOL    HW1 4123   2.742   0.046   1.625 -0.2055 -1.4389  0.3458
 1177SOL    HW2 4124   2.602   0.050   1.567  0.3625  0.1163 -1.0034
 1178SOL     OW 4125   3.407   5.178   0.669 -0.2558 -0.3821  0.4219
 1178SOL    HW1 4126   3.461   5.182   0.748  0.4207 -3.9379  0.2907
 1178SOL    HW2 4127   3.468   5.156   0.599 -1.0029  1.7485 -0.9952
 1179SOL     OW 4128   3.346   0.231   1.952  0.2387  0.6508  0.0706
 1179SOL    HW1 4129   3.396   0.150   1.967 -1.1693 -0.2061  0.3864
 1179SOL    HW2 4130   3.282   0.207   1.885 -2.5949  0.3249  2.6557
 1180SOL     OW 4131   2.484   1.796   2.642 -0.1734 -0.4158  0.9116
 1180SOL    HW1 4132   2.525   1.764   2.562 -1.1722  0.2596  0.1130
 1180SOL    HW2 4133   2.554   1.844   2.687  0.0849  0.2724 -0.1744
 1181SOL     OW 4134  -0.011   2.443   2.934 -0.4072  1.0198  0.1440
 1181SOL    HW1 4135   0.028   2.380   2.873 -0.6452  0.4006  0.6308
 1181SOL    HW2 4136   0.041   2.523   2.921  0.8777  0.2843  0.6004
 1182SOL     OW 4137   3.212   0.882   2.549 -0.1137 -0.0387 -0.8816
 1182SOL    HW1 4138   3.221   0.972   2.580 -0.1140 -0.3366  0.0360
 1182SOL    HW2 4139   3.229   0.886   2.455  1.3295  0.6990 -0.6150
 1183SOL     OW 4140   4.163   5.253   0.649  0.6275 -0.2854  0.6018
 1183SOL    HW1 4141   4.211   5.194   0.590 -1.1304  0.5857 -1.8952
 1183SOL    HW2 4142   4.081   5.206   0.666  0.3258  0.3023  0.7613
 1184SOL     OW 4143   1.822   4.872   2.122 -1.0859 -0.2071  0.0220
 1184SOL    HW1 4144   1.832   4.847   2.030 -1.9015 -0.2176 -0.0687
 1184SOL    HW2 4145   1.801   4.965   2.120 -4.1847 -0.7831 -0.0328
 1185SOL     OW 4146   6.729   0.400   0.829  0.1354 -0.2696  0.2267
 1185SOL    HW1 4147   6.811   0.351   0.819  0.3659 -0.7174  3.1843
 1185SOL    HW2 4148   6.728   0.424   0.922 -2.0810  1.6168 -0.2037
 1186SOL     OW 4149   1.756   1.482   0.850 -0.2369 -0.0219 -0.0934
 1186SOL    HW1 4150   1.737   1.540   0.923 -3.1939 -0.2779 -0.5313
 1186SOL    HW2 4151   1.849   1.461   0.859  1.3127  5.2623 -0.3327
 1187SOL     OW 4152   3.665   0.298   1.887  0.2758  0.0900  0.1534
 1187SOL    HW1 4153   3.599   0.306   1.956  0.9528  0.9536  0.7122
 1187SOL    HW2 4154   3.671   0.204   1.871 -0.4698 -0.0604  0.6945
 1188SOL     OW 4155   1.876   1.853   2.380  0.1770 -0.3290 -0.2919
 1188SOL    HW1 4156   1.952   1.878   2.433  0.3267  1.8868 -1.4623
 1188SOL    HW2 4157   1.897   1.883   2.292 -1.8613 -0.1113 -0.7567
 1189SOL     OW 4158   2.439   0.185   0.718  0.3551  0.2898 -0.6176
 1189SOL    HW1 4159   2.416   0.165   0.809  0.4114 -0.0274 -0.6721
 1189SOL    HW2 4160   2.367   0.240   0.687 -0.5170 -0.9437 -0.8813
 1190SOL     OW 4161   2.916   0.732   1.186  0.1745  0.4690 -0.1454
 1190SOL    HW1 4162   2.926   0.762   1.095  0.9753  1.0233  0.1225
 1190SOL    HW2 4163   2.943   0.806   1.239  4.0954 -1.2108  0.5498
 1191SOL     OW 4164   3.207   5.382   2.559 -0.5991 -0.1949 -0.1441
 1191SOL    HW1 4165   3.127   5.422   2.525 -0.1084  0.0789 -1.0030
 1191SOL    HW2 4166   3.230   5.435   2.635 -0.6061  0.4362 -0.5788
 1192SOL     OW 4167   2.948   1.817   0.411  0.2267  0.2360  0.3911
 1192SOL    HW1 4168   2.961   1.855   0.325 -1.4860 -0.0448 -0.0254
 1192SOL    HW2 4169   2.857   1.837   0.434  0.2928 -0.6905  1.6194
 1193SOL     OW 4170   1.515   1.986   0.586  0.2334 -0.0991  0.3406
 1193SOL    HW1 4171   1.571   2.042   0.531 -0.9124  0.1854 -0.5884
 1193SOL    HW2 4172   1.442   2.043   0.612 -0.6000 -0.9483 -0.0488
 1194SOL     OW 4173   2.628   4.383   0.600 -0.0902 -0.8614  0.6916
 1194SOL    HW1 4174   2.614   4.358   0.691  0.2282  1.8516  1.5652
 1194SOL    HW2 4175   2.554   4.440   0.578  0.4443 -0.5311 -0.3578
 1195SOL     OW 4176   2.448   0.163   1.529  0.4335 -0.0332 -0.4921
 1195SOL    HW1 4177   2.365   0.166   1.482  0.3789 -0.7815 -0.4523
 1195SOL    HW2 4178   2.490   0.246   1.508 -0.6979  0.7506  0.1908
 1196SOL     OW 4179   2.513   0.617   2.780 -0.3848  0.0657 -0.2951
 1196SOL    HW1 4180   2.513   0.712   2.770 -1.1280  0.0709 -0.3356
 1196SOL    HW2 4181   2.547   0.601   2.867 -0.2842  0.3735 -0.2784
 1197SOL     OW 4182   1.040   0.260   2.653  0.3163  0.2932 -0.4287
 1197SOL    HW1 4183   1.119   0.310   2.673 -0.3558  0.3454  2.4010
 1197SOL    HW2 4184   1.072   0.170   2.642  0.7449  0.1988  1.3246
 1198SOL     OW 4185   2.154   0.159   3.427 -0.0759 -0.2788  0.5728
 1198SOL    HW1 4186   2.063   0.170   3.401 -0.3177 -1.6866  0.7486
 1198SOL    HW2 4187   2.185   0.083   3.376  0.7867 -0.2507  1.0272
 1199SOL     OW 4188   3.935   1.823   2.747  0.2434  0.6073 -0.8857
 1199SOL    HW1 4189   4.010   1.764   2.749 -0.4122 -0.2792  1.7063
 1199SOL    HW2 4190   3.870   1.778   2.693  0.2392 -0.4745 -0.0228
 1200SOL     OW 4191   1.983   0.324   1.845  0.0600 -0.0932  0.3542
 1200SOL    HW1 4192   2.068   0.366   1.829 -0.8064  1.7835  0.4283
 1200SOL    HW2 4193   1.999   0.231   1.830  1.1851  0.5910 -3.8042
 1201SOL     OW 4194   2.678   0.141   0.572 -0.3056  0.8129 -0.4278
 1201SOL    HW1 4195   2.744   0.177   0.633  0.3464 -1.8085  0.5349
 1201SOL    HW2 4196   2.594   0.163   0.613  0.0128  2.0951 -0.4144
 1202SOL     OW 4197   1.151   4.781   2.967 -0.2400  0.3087 -0.5219
 1202SOL    HW1 4198   1.092   4.844   2.926 -0.2123  0.6200 -0.0928
 1202SOL    HW2 4199   1.221   4.835   3.004 -1.0458  0.1852  1.2772
 1203SOL     OW 4200   1.701   2.564   1.799  0.6554  0.3459  0.1778
 1203SOL    HW1 4201   1.757   2.595   1.729 -3.1055  0.3561 -3.1920
 1203SOL    HW2 4202   1.693   2.470   1.784 -1.5104  0.6020 -0.5898
 1204SOL     OW 4203   2.124   1.960   2.952 -0.2804 -0.2340  0.2564
 1204SOL    HW1 4204   2.078   2.020   3.011 -0.7306 -0.4483  0.1316
 1204SOL    HW2 4205   2.090   1.873   2.975  1.8054 -0.7147  1.7849
 1205SOL     OW 4206   2.460   0.352   2.179 -0.0107  0.2777 -0.0609
 1205SOL    HW1 4207   2.555   0.337   2.186 -0.4318 -2.5288  1.0316
 1205SOL    HW2 4208   2.430   0.356   2.270 -1.0452  0.1929 -0.3932
 1206SOL     OW 4209   5.001   1.908   0.651  0.0667  0.1150 -0.3297
 1206SOL    HW1 4210   5.038   1.849   0.586 -0.4375 -0.5690 -0.0241
 1206SOL    HW2 4211   5.054   1.987   0.647  0.2430 -0.0503 -1.3278
 1207SOL     OW 4212   1.736   2.026   1.203  0.4315  0.0581 -0.2463
 1207SOL    HW1 4213   1.769   2.108   1.166 -0.9722  0.1964 -1.2829
 1207SOL    HW2 4214   1.808   1.993   1.256  1.1987  1.7340 -0.1661
 1208SOL     OW 4215   0.796   1.064   3.265  0.0135 -0.4861 -0.0383
 1208SOL    HW1 4216   0.854   1.084   3.191  0.7115 -0.0936  0.5970
 1208SOL    HW2 4217   0.844   1.095   3.342 -1.4251  0.6596  0.4385
 1209SOL     OW 4218   3.547   1.569   0.624 -0.1262  0.1423 -0.3026
 1209SOL    HW1 4219   3.588   1.516   0.693 -0.0618  0.6243  0.0386
 1209SOL    HW2 4220   3.505   1.640   0.672  0.0700  0.5790 -0.7767
 1210SOL     OW 4221   5.024   1.528   1.876  0.4265  0.0188 -0.0394
 1210SOL    HW1 4222   5.100   1.580   1.851 -0.5271  0.4336 -2.3064
 1210SOL    HW2 4223   4.974   1.518   1.795 -1.4290 -1.0905  1.1712
 1211SOL     OW 4224   1.630   1.735   3.113  0.1829  0.3161  0.5323
 1211SOL    HW1 4225   1.715   1.729   3.070 -0.2312 -1.0394 -0.1647
 1211SOL    HW2 4226   1.616   1.829   3.126  1.7127  0.5641  0.5402
 1212SOL     OW 4227   2.850   1.509   3.001  0.7452 -0.4150 -0.1689
 1212SOL    HW1 4228   2.812   1.588   3.039  0.0835 -1.0085  0.4177
 1212SOL    HW2 4229   2.781   1.473   2.945  1.0867 -0.5135 -0.5340
 1213SOL     OW 4230   2.442   3.063   0.248 -0.3845  0.0499 -0.1292
 1213SOL    HW1 4231   2.374   3.000   0.273  1.0151 -0.9418  1.4000
 1213SOL    HW2 4232   2.502   3.013   0.192  0.7768 -0.0544  1.1487
 1214SOL     OW 4233   2.145   2.181   2.783  0.1811 -0.0548  0.4305
 1214SOL    HW1 4234   2.064   2.140   2.753  0.5248  0.2028 -0.8981
 1214SOL    HW2 4235   2.174   2.126   2.856 -1.2253 -0.0947  0.9890
 1215SOL     OW 4236   1.762   0.422   1.147  0.1670 -0.2607 -0.3820
 1215SOL    HW1 4237   1.709   0.367   1.204  0.4375  0.2860  0.4148
 1215SOL    HW2 4238   1.852   0.401   1.171  0.2749  0.8446  0.2737
 1216SOL     OW 4239   5.148   0.054   2.088 -0.3297 -0.0518 -0.2495
 1216SOL    HW1 4240   5.076  -0.007   2.071  0.5154 -0.5205 -2.4176
 1216SOL    HW2 4241   5.122   0.134   2.044  0.6383 -0.3590 -1.4175
 1217SOL     OW 4242   1.451   1.846   0.946 -0.4286  0.2459 -0.1721
 1217SOL    HW1 4243   1.526   1.837   0.888 -2.1364 -1.8321 -2.2673
 1217SOL    HW2 4244   1.489   1.855   1.033  2.2341  2.5072 -1.4006
 1218SOL     OW 4245   2.546   0.403   1.487  0.6487 -0.0329  0.0202
 1218SOL    HW1 4246   2.575   0.457   1.414  0.1366 -2.2556 -1.9731
 1218SOL    HW2 4247   2.518   0.465   1.554  2.2496  2.1179 -1.1617
 1219SOL     OW 4248   2.330   1.526   1.081 -0.3008  0.2542  0.1876
 1219SOL    HW1 4249   2.269   1.493   1.147  0.1346  0.9667  0.9612
 1219SOL    HW2 4250   2.282   1.597   1.038 -0.1118  0.6464  0.6226
 1220SOL     OW 4251   1.331   2.101   3.178  0.0001 -0.3829  0.5283
 1220SOL    HW1 4252   1.369   2.033   3.233 -1.2436 -1.2645  0.3365
 1220SOL    HW2 4253   1.388   2.104   3.101  0.4841 -0.6899  0.8693
 1221SOL     OW 4254   3.180   1.074   0.887 -0.2515 -0.2223 -0.6176
 1221SOL    HW1 4255   3.096   1.027   0.882 -0.2864 -0.2925  0.3762
 1221SOL    HW2 4256   3.157   1.165   0.871 -0.6653 -0.1171  0.4595
 1222SOL     OW 4257   3.233   0.522   0.055 -0.3002 -0.5734 -0.0749
 1222SOL    HW1 4258   3.208   0.614   0.061 -1.2396 -0.7412 -1.1749
 1222SOL    HW2 4259   3.242   0.505  -0.039 -1.0904 -1.8447  0.0606
 1223SOL     OW 4260   2.703   4.456   1.123  0.0796 -0.2354 -0.2240
 1223SOL    HW1 4261   2.784   4.502   1.144 -0.2561  0.0439  0.4862
 1223SOL    HW2 4262   2.636   4.497   1.178 -0.4439 -0.8238 -0.4022
 1224SOL     OW 4263   3.061   0.084   2.258 -0.4483  0.0313  0.5117
 1224SOL    HW1 4264   3.017   0.042   2.331  0.3666 -1.8505 -0.0361
 1224SOL    HW2 4265   3.153   0.089   2.285 -0.2972  0.1569 -0.0069
 1225SOL     OW 4266   2.193   1.351   0.690 -0.1958 -0.0858 -0.6725
 1225SOL    HW1 4267   2.287   1.340   0.701 -0.1754  0.4739 -0.2430
 1225SOL    HW2 4268   2.181   1.375   0.598  0.1536  0.5683 -0.5519
 1226SOL     OW 4269   0.359   1.111   0.743 -0.4171 -0.4472 -0.5278
 1226SOL    HW1 4270   0.438   1.057   0.745 -0.6187 -0.7196  0.5545
 1226SOL    HW2 4271   0.376   1.180   0.806 -1.1584 -0.6871 -0.0502
 1227SOL     OW 4272   4.274   0.124   2.518 -0.8204  0.3509  0.2705
 1227SOL    HW1 4273   4.359   0.085   2.497 -0.1299  2.0321 -0.2641
 1227SOL    HW2 4274   4.284   0.158   2.607 -1.1825 -0.0826  0.4795
 1228SOL     OW 4275   3.080   4.842   0.691 -0.1638  0.6541 -0.1151
 1228SOL    HW1 4276   3.113   4.841   0.601  2.8648 -0.5230  0.9047
 1228SOL    HW2 4277   3.152   4.877   0.743 -1.4443  0.2768  2.0289
 1229SOL     OW 4278   2.511   1.133   1.745  0.0302 -0.0028  0.2691
 1229SOL    HW1 4279   2.596   1.105   1.778 -0.5546 -1.8644  0.3271
 1229SOL    HW2 4280   2.456   1.141   1.823  0.1651  1.3191  0.2452
 1230SOL     OW 4281   0.993   0.540   0.452 -0.1361  0.2976 -0.3429
 1230SOL    HW1 4282   1.084   0.511   0.443 -0.2976 -0.4565  0.3263
 1230SOL    HW2 4283   0.941   0.460   0.437 -0.5627 -0.0831  2.6779
 1231SOL     OW 4284   3.445   5.241   1.247  0.4488  0.0458 -0.3387
 1231SOL    HW1 4285   3.386   5.316   1.257  1.0990  0.3930  1.1920
 1231SOL    HW2 4286   3.524   5.276   1.208  0.2419 -0.1163 -0.9100
 1232SOL     OW 4287   2.274   1.170   1.460 -0.0278 -0.6846  0.4877
 1232SOL    HW1 4288   2.332   1.240   1.490 -0.9881  0.1985  0.3600
 1232SOL    HW2 4289   2.233   1.136   1.539 -2.1510  1.2762  0.3451
 1233SOL     OW 4290   3.779   0.812   3.108 -0.1695  0.2219  0.4564
 1233SOL    HW1 4291   3.770   0.747   3.178 -3.1707  0.3074  0.2732
 1233SOL    HW2 4292   3.818   0.888   3.150  0.3929 -0.5841  1.4264
 1234SOL     OW 4293   2.377   1.603   2.827 -0.2162 -0.5355  0.1212
 1234SOL    HW1 4294   2.282   1.606   2.818 -0.4637  0.5463  2.3564
 1234SOL    HW2 4295   2.410   1.654   2.753 -1.5617  1.5387  0.8590
 1235SOL     OW 4296   2.877   0.672   3.246  0.0494  0.0125 -0.0829
 1235SOL    HW1 4297   2.880   0.767   3.256  1.5980 -0.1639  1.6826
 1235SOL    HW2 4298   2.804   0.644   3.301 -0.6253  0.1838 -0.8733
 1236SOL     OW 4299   2.364   0.756   1.006  0.2021 -0.4235  0.1497
 1236SOL    HW1 4300   2.398   0.678   0.963  1.2757 -0.5640  1.2042
 1236SOL    HW2 4301   2.442   0.804   1.035 -0.4040  1.4686 -1.1793
 1237SOL     OW 4302   0.927   4.140   1.097  0.1844 -0.4398 -0.0322
 1237SOL    HW1 4303   0.862   4.152   1.028  0.3176 -0.7315 -0.2106
 1237SOL    HW2 4304   0.989   4.212   1.084 -0.3823  0.1465  0.4613
 1238SOL     OW 4305   2.185   5.179   3.068 -0.1986 -0.0689 -0.3185
 1238SOL    HW1 4306   2.090   5.185   3.068 -0.1221  1.4085 -0.2223
 1238SOL    HW2 4307   2.211   5.209   2.980  0.1838 -0.3596 -0.3092
 1239SOL     OW 4308   1.727   5.238   1.003 -0.2306  0.0974 -0.7043
 1239SOL    HW1 4309   1.719   5.145   1.026  0.4202 -0.1599 -1.4925
 1239SOL    HW2 4310   1.789   5.240   0.930 -1.4950  1.0019 -1.7917
 1240SOL     OW 4311   1.738   1.351   1.359 -0.0980 -0.4964  0.0125
 1240SOL    HW1 4312   1.697   1.400   1.288 -0.1550 -1.1997 -0.4503
 1240SOL    HW2 4313   1.666   1.304   1.400  0.3135 -2.5384 -1.4394
 1241SOL     OW 4314   2.594   4.724   2.863  0.6726  0.1044  0.0712
 1241SOL    HW1 4315   2.661   4.681   2.810  0.0032 -0.8130 -0.0673
 1241SOL    HW2 4316   2.626   4.717   2.953  0.5356 -0.7983  0.0607
 1242SOL     OW 4317   1.805   4.734   1.037 -0.2885  0.0274 -0.2263
 1242SOL    HW1 4318   1.823   4.755   0.945  3.7146 -1.7313 -0.0977
 1242SOL    HW2 4319   1.796   4.819   1.080  3.3163  1.2546 -1.4956
 1243SOL     OW 4320   2.595   1.108   0.530  0.0652  0.2640 -0.2030
 1243SOL    HW1 4321   2.660   1.096   0.461 -0.9135  0.3425 -1.1721
 1243SOL    HW2 4322   2.611   1.036   0.591  1.4611  0.6541 -0.0724
 1244SOL     OW 4323   1.750   1.461   0.547 -0.1398 -0.0417 -0.0572
 1244SOL    HW1 4324   1.690   1.535   0.549 -1.9194 -1.3368 -1.5762
 1244SOL    HW2 4325   1.794   1.462   0.632 -0.2966  2.5402  0.0706
 1245SOL     OW 4326   2.605   0.846   1.338  0.0571 -0.2021  0.4027
 1245SOL    HW1 4327   2.632   0.918   1.394 -1.0410  2.1706 -1.8949
 1245SOL    HW2 4328   2.513   0.830   1.361 -0.0810  0.0541  0.0486
 1246SOL     OW 4329   2.123   0.401   1.474 -0.2773 -0.0445 -0.2923
 1246SOL    HW1 4330   2.187   0.436   1.536  1.2353 -1.3654 -1.0239
 1246SOL    HW2 4331   2.038   0.416   1.515  0.4088  2.5426  0.3330
 1247SOL     OW 4332   2.829   5.190   0.097  0.1742  0.0029  0.1967
 1247SOL    HW1 4333   2.818   5.279   0.130  1.7070  0.6699 -0.9407
 1247SOL    HW2 4334   2.922   5.171   0.113  0.1034 -0.9753 -0.5179
 1248SOL     OW 4335   2.427   1.976   2.273  0.9344  0.5277  0.9073
 1248SOL    HW1 4336   2.438   2.042   2.342  1.8795  0.4488  0.8515
 1248SOL    HW2 4337   2.436   2.025   2.191  0.1630  0.5623  0.8349
 1249SOL     OW 4338   4.576   2.438   1.586 -0.2472  0.4131  0.5000
 1249SOL    HW1 4339   4.631   2.374   1.631 -1.0634 -0.5223  0.2043
 1249SOL    HW2 4340   4.635   2.480   1.523 -0.1535 -1.5803 -0.8419
 1250SOL     OW 4341   2.876   1.851   2.833 -0.0464 -0.0980  0.0707
 1250SOL    HW1 4342   2.937   1.854   2.907 -0.4792 -0.7539  0.4627
 1250SOL    HW2 4343   2.879   1.761   2.802 -1.3336 -0.3326  0.5490
 1251SOL     OW 4344   2.031   1.091   3.111 -0.2612  0.0013 -0.2330
 1251SOL    HW1 4345   2.116   1.127   3.138 -0.0475 -0.4599 -0.2763
 1251SOL    HW2 4346   2.006   1.034   3.183 -0.9077  0.7348  0.1259
 1252SOL     OW 4347   2.330   2.373   0.483  0.2766  0.1259 -0.3154
 1252SOL    HW1 4348   2.368   2.455   0.515 -1.2137  1.3388 -1.5087
 1252SOL    HW2 4349   2.269   2.400   0.414  1.0197 -2.1187 -1.9789
 1253SOL     OW 4350   2.009   2.641   1.890  0.6573 -0.3822 -0.2335
 1253SOL    HW1 4351   1.920   2.676   1.880 -0.4138 -3.0973 -1.1124
 1253SOL    HW2 4352   2.056   2.672   1.812  0.2175  0.3603 -0.2093
 1254SOL     OW 4353   2.306   2.265   0.755  0.0588 -0.3649  0.1566
 1254SOL    HW1 4354   2.379   2.211   0.786  0.9598  0.7286 -0.0253
 1254SOL    HW2 4355   2.326   2.281   0.662 -0.5717 -0.3003  0.0296
 1255SOL     OW 4356   1.353   2.192   0.798 -0.7721 -0.2659 -0.7002
 1255SOL    HW1 4357   1.438   2.228   0.772 -1.2323  0.0556 -1.7949
 1255SOL    HW2 4358   1.349   2.207   0.893  0.2492  0.0098 -0.6898
 1256SOL     OW 4359   1.307   0.783   0.662  0.3746  0.2672  0.1146
 1256SOL    HW1 4360   1.346   0.835   0.592  0.3540 -0.7547 -0.6804
 1256SOL    HW2 4361   1.355   0.700   0.659 -2.1821 -1.2739 -1.3045
 1257SOL     OW 4362   1.496   5.120   1.447 -0.0588 -0.5800  0.6377
 1257SOL    HW1 4363   1.490   5.087   1.357 -1.2560 -0.8269  0.7894
 1257SOL    HW2 4364   1.590   5.119   1.467  0.3206  0.5207 -0.9804
 1258SOL     OW 4365   5.443   1.382   3.383 -0.0960 -0.3789 -0.2440
 1258SOL    HW1 4366   5.473   1.291   3.385  1.2929  0.0481 -0.4679
 1258SOL    HW2 4367   5.380   1.385   3.311  0.6729 -0.9315 -0.9577
 1259SOL     OW 4368   4.324   4.224   3.000  0.4928  0.0551  0.5264
 1259SOL    HW1 4369   4.401   4.273   2.970 -0.2938  1.1139  0.2045
 1259SOL    HW2 4370   4.346   4.198   3.089  2.6778 -2.7334 -0.6694
 1260SOL     OW 4371   3.207   2.980   2.681  0.2341  0.4435 -0.0773
 1260SOL    HW1 4372   3.167   3.017   2.760 -0.9916  0.4697 -0.6828
 1260SOL    HW2 4373   3.133   2.943   2.632  1.2733 -1.7741 -0.0479
 1261SOL     OW 4374   2.446   4.443   3.201 -0.6335  0.4348 -0.1844
 1261SOL    HW1 4375   2.451   4.495   3.281  2.0304 -0.0003  0.0237
 1261SOL    HW2 4376   2.524   4.387   3.204  0.0919  1.0353 -3.4781
 1262SOL     OW 4377   2.771   3.809   0.864 -0.2027  0.2719  0.1050
 1262SOL    HW1 4378   2.780   3.899   0.832 -2.1576  0.4131 -0.1351
 1262SOL    HW2 4379   2.862   3.778   0.871  0.4878  0.9524 -3.4860
 1263SOL     OW 4380   2.335   0.862   2.488  0.0236  0.6640  0.1592
 1263SOL    HW1 4381   2.329   0.768   2.474  0.1465  0.8884 -1.6141
 1263SOL    HW2 4382   2.411   0.873   2.546  0.8380 -0.2478 -0.7070
 1264SOL     OW 4383   0.678   4.612   2.793 -0.0853 -0.5324 -0.0693
 1264SOL    HW1 4384   0.714   4.659   2.717 -0.4084  0.9587  0.6577
 1264SOL    HW2 4385   0.724   4.649   2.868 -1.3604 -0.3557  0.6599
 1265SOL     OW 4386   2.673   1.528   0.455 -0.3162  0.4058  0.2512
 1265SOL    HW1 4387   2.739   1.472   0.415  0.1284  1.3345 -0.3383
 1265SOL    HW2 4388   2.709   1.551   0.541 -0.8084 -0.7479  0.7845
 1266SOL     OW 4389   2.580   1.319   1.986  0.0259 -0.3565  0.3639
 1266SOL    HW1 4390   2.628   1.255   2.037 -0.0080  0.4238  1.4008
 1266SOL    HW2 4391   2.521   1.361   2.049 -0.7325 -0.0623 -0.5166
 1267SOL     OW 4392   1.664   2.207   2.086  0.5389  0.3105 -0.1680
 1267SOL    HW1 4393   1.706   2.293   2.091 -1.8516  1.5607  0.1375
 1267SOL    HW2 4394   1.629   2.193   2.174  0.5138 -0.7733 -0.3420
 1268SOL     OW 4395   0.114   0.266   2.048  0.0045 -0.0164  0.5861
 1268SOL    HW1 4396   0.143   0.316   1.972 -0.3021 -0.3231  0.2679
 1268SOL    HW2 4397   0.187   0.207   2.067  0.1797  0.2273  0.6809
 1269SOL     OW 4398   1.817   2.314   2.665  0.0514 -0.4958 -0.1584
 1269SOL    HW1 4399   1.850   2.346   2.749 -0.4802 -1.6053  0.4907
 1269SOL    HW2 4400   1.831   2.220   2.668  1.2503 -0.4197 -1.8820
 1270SOL     OW 4401   0.732   5.371   0.802 -0.4232 -0.0454 -0.0936
 1270SOL    HW1 4402   0.739   5.462   0.772 -1.8941  0.2854  0.5002
 1270SOL    HW2 4403   0.638   5.355   0.810 -0.1571 -0.8318  2.1428
 1271SOL     OW 4404   3.839   1.564   1.947 -0.1960 -0.2067 -0.1090
 1271SOL    HW1 4405   3.880   1.533   2.028  1.0940 -1.8528 -1.3320
 1271SOL    HW2 4406   3.870   1.504   1.880 -0.9448  1.3317 -1.9129
 1272SOL     OW 4407   3.432   0.733   1.282  0.0557 -0.3079 -0.5619
 1272SOL    HW1 4408   3.361   0.668   1.280 -0.7887  0.5154  0.9919
 1272SOL    HW2 4409   3.395   0.810   1.238  0.2197 -0.0981 -0.3340
 1273SOL     OW 4410   3.430   4.972   1.206  0.0576 -0.1284  0.1249
 1273SOL    HW1 4411   3.441   5.059   1.246 -0.2820 -0.1340  0.2417
 1273SOL    HW2 4412   3.387   4.990   1.122  2.2313  0.0206 -1.0024
 1274SOL     OW 4413   2.357   4.774   1.665 -0.0409 -0.8416 -0.0649
 1274SOL    HW1 4414   2.392   4.699   1.712  0.2257  0.1826  1.4330
 1274SOL    HW2 4415   2.434   4.829   1.648 -0.5005  0.0133  0.5883
 1275SOL     OW 4416   1.354   2.941   0.630 -0.5235 -0.1723  0.1735
 1275SOL    HW1 4417   1.285   2.964   0.568 -1.6584 -1.8121  0.7677
 1275SOL    HW2 4418   1.411   2.881   0.581  0.2434  0.7974 -0.1605
 1276SOL     OW 4419   3.806   1.774   1.586  0.0474 -0.8834  0.6936
 1276SOL    HW1 4420   3.814   1.831   1.663  0.0705 -0.2096  0.1976
 1276SOL    HW2 4421   3.821   1.832   1.512 -1.0692 -1.2998  0.1211
 1277SOL     OW 4422   3.376   4.989   2.803 -0.0843 -0.1680 -0.1573
 1277SOL    HW1 4423   3.315   4.960   2.734 -1.2105  0.8798  0.3633
 1277SOL    HW2 4424   3.321   5.037   2.865  1.1621  0.1601  0.7281
 1278SOL     OW 4425   2.787   5.284   3.013 -0.1454 -0.1420 -1.0511
 1278SOL    HW1 4426   2.764   5.226   3.086 -1.5606  1.7596  0.0885
 1278SOL    HW2 4427   2.882   5.274   3.004  0.0704 -0.4899  1.0211
 1279SOL     OW 4428   2.625   4.615   1.353 -0.0801  0.6415  0.0654
 1279SOL    HW1 4429   2.704   4.598   1.404  0.1191  0.8643 -0.1724
 1279SOL    HW2 4430   2.559   4.640   1.419  0.1672  0.8946  0.2182
 1280SOL     OW 4431   1.060   0.816   0.504  0.0177 -0.0400 -0.8255
 1280SOL    HW1 4432   1.009   0.740   0.475 -0.5149  0.5218 -1.4177
 1280SOL    HW2 4433   1.132   0.779   0.555 -0.4353 -0.9160 -0.7954
 1281SOL     OW 4434   1.325   0.358   2.021 -0.2488 -0.2072  0.1438
 1281SOL    HW1 4435   1.246   0.409   2.038 -1.5939 -2.8098  2.6533
 1281SOL    HW2 4436   1.302   0.301   1.947 -0.0837  0.2436 -0.2555
 1282SOL     OW 4437   3.482   0.611   2.903 -0.5698 -0.3560  0.3828
 1282SOL    HW1 4438   3.419   0.663   2.853 -1.2244 -1.4236  0.0617
 1282SOL    HW2 4439   3.502   0.665   2.979 -1.9904 -0.0230  0.5553
 1283SOL     OW 4440   2.842   2.018   3.394  0.4510  0.1195 -0.6594
 1283SOL    HW1 4441   2.892   2.067   3.459  0.2281 -1.0466  0.4298
 1283SOL    HW2 4442   2.771   2.076   3.370  0.5896  0.6086  0.0776
 1284SOL     OW 4443   2.532   0.066   2.375  0.0428 -0.3168  0.0795
 1284SOL    HW1 4444   2.462   0.063   2.310  1.1583 -0.8128 -1.1506
 1284SOL    HW2 4445   2.613   0.065   2.323  0.9692  0.2798  1.4523
 1285SOL     OW 4446   1.166   2.706   2.299 -0.0403  0.2209  0.5170
 1285SOL    HW1 4447   1.238   2.648   2.276 -1.9852 -3.1207  2.0928
 1285SOL    HW2 4448   1.201   2.764   2.366  2.0712  1.2563 -1.3508
 1286SOL     OW 4449   2.665   0.591   1.328 -0.4577  0.2110 -0.2251
 1286SOL    HW1 4450   2.646   0.685   1.329  0.3058  0.4060  1.7098
 1286SOL    HW2 4451   2.744   0.583   1.274 -1.0696  0.5350 -1.1890
 1287SOL     OW 4452   1.477   1.563   3.313  0.6292 -0.1531 -0.4940
 1287SOL    HW1 4453   1.505   1.474   3.289  0.9432 -0.2126  0.0847
 1287SOL    HW2 4454   1.528   1.620   3.256  1.2553 -0.2999 -0.0843
 1288SOL     OW 4455   1.004   0.718   1.840 -0.5608  0.6058 -0.2390
 1288SOL    HW1 4456   1.048   0.800   1.863  0.8851  0.1765 -1.3220
 1288SOL    HW2 4457   0.986   0.724   1.747 -1.0066 -0.0601 -0.2079
 1289SOL     OW 4458   2.125   0.749   1.551 -0.2066  0.0536  0.4193
 1289SOL    HW1 4459   2.047   0.720   1.504  0.2239  3.1661 -2.5834
 1289SOL    HW2 4460   2.092   0.783   1.634 -1.6772 -0.8715  0.2531
 1290SOL     OW 4461   2.277   1.488   1.946  0.3735 -0.2301 -0.6493
 1290SOL    HW1 4462   2.237   1.539   2.016 -0.2361 -1.9753  0.3320
 1290SOL    HW2 4463   2.260   1.397   1.969  1.4986 -0.9155 -2.2811
 1291SOL     OW 4464   3.068   2.246   2.979 -0.2901 -0.0521  0.2745
 1291SOL    HW1 4465   2.993   2.262   2.922 -0.4433 -3.7157 -0.7805
 1291SOL    HW2 4466   3.031   2.212   3.060  0.1449  0.9229  0.9018
 1292SOL     OW 4467   1.681   1.190   0.567 -0.1033 -0.3068  0.2540
 1292SOL    HW1 4468   1.724   1.144   0.640 -0.1039 -0.6093  0.0634
 1292SOL    HW2 4469   1.699   1.282   0.584 -0.4811 -0.3367  0.8889
 1293SOL     OW 4470   3.063   0.448   3.249  0.0211 -0.0908 -0.1860
 1293SOL    HW1 4471   3.140   0.447   3.192 -1.3092 -0.6083 -2.0559
 1293SOL    HW2 4472   3.028   0.537   3.241 -0.1417 -0.1492 -0.1296
 1294SOL     OW 4473   1.716   3.130   2.104  0.5120  0.1540  0.0343
 1294SOL    HW1 4474   1.624   3.106   2.114  0.2263  1.1792 -0.0295
 1294SOL    HW2 4475   1.751   3.065   2.044 -0.5691  0.6888 -1.2286
 1295SOL     OW 4476   1.936   0.938   0.587 -0.2174  0.3378  0.0229
 1295SOL    HW1 4477   1.977   0.861   0.547 -1.3990 -1.2390  1.6378
 1295SOL    HW2 4478   2.008   0.999   0.601  0.8008 -0.5430 -1.1413
 1296SOL     OW 4479   2.266   2.972   2.881 -0.5044  0.5291  0.2563
 1296SOL    HW1 4480   2.243   3.046   2.825 -3.9956  0.4504  1.3377
 1296SOL    HW2 4481   2.308   3.011   2.958  0.3443  1.0509 -0.4637
 1297SOL     OW 4482   2.604   0.643   3.043  0.2786  0.0950  0.2226
 1297SOL    HW1 4483   2.685   0.695   3.043  0.4520 -0.0958 -1.7941
 1297SOL    HW2 4484   2.631   0.557   3.075  1.6068 -0.8505 -3.0099
 1298SOL     OW 4485   2.042   0.214   1.032 -0.3210 -0.0783  0.6955
 1298SOL    HW1 4486   2.028   0.273   1.106  0.4718  0.6360  0.3050
 1298SOL    HW2 4487   2.116   0.252   0.985 -1.2217 -0.1122 -0.8512
 1299SOL     OW 4488   2.149   0.805   2.960 -0.1372 -0.4911  0.2910
 1299SOL    HW1 4489   2.234   0.786   3.000  0.6256  0.3758 -0.8325
 1299SOL    HW2 4490   2.086   0.795   3.031  1.0651  0.2754  1.5242
 1300SOL     OW 4491   1.673   0.199   1.310  0.3570  0.0398 -0.4565
 1300SOL    HW1 4492   1.585   0.163   1.318  0.1256  1.0132  2.8624
 1300SOL    HW2 4493   1.729   0.123   1.295 -0.5558 -1.3358  2.4461
 1301SOL     OW 4494   1.491   3.075   0.197  0.3339 -0.1228 -0.0948
 1301SOL    HW1 4495   1.505   3.108   0.286  0.0267  0.2063 -0.1673
 1301SOL    HW2 4496   1.472   2.982   0.209 -0.0472 -0.0069  0.2124
 1302SOL     OW 4497   2.280   0.605   0.439 -0.3043  0.6355  0.0161
 1302SOL    HW1 4498   2.345   0.570   0.500  0.6949  1.4527 -0.5496
 1302SOL    HW2 4499   2.219   0.533   0.423 -0.0539  0.1403  1.2581
 1303SOL     OW 4500   2.196   1.319   1.247 -0.0304  0.1105  0.2479
 1303SOL    HW1 4501   2.213   1.250   1.311  0.7651  1.9657  2.1878
 1303SOL    HW2 4502   2.129   1.283   1.189  0.6147 -2.3813  0.9243
 1304SOL     OW 4503   2.412   1.113   2.926  0.1784 -0.5812  0.2981
 1304SOL    HW1 4504   2.326   1.093   2.889 -0.4962  2.4880 -0.0764
 1304SOL    HW2 4505   2.393   1.151   3.012  1.2958 -1.3535  0.9111
 1305SOL     OW 4506   2.107   2.985   1.511  0.1008 -0.2728  0.0563
 1305SOL    HW1 4507   2.146   3.069   1.485 -1.2251 -0.7604 -4.4387
 1305SOL    HW2 4508   2.123   2.927   1.436 -1.5798 -3.1542  1.7355
 1306SOL     OW 4509   2.067   4.936   1.193 -0.1774 -0.2945 -0.2864
 1306SOL    HW1 4510   2.066   4.843   1.217  0.5928 -0.1779  0.2565
 1306SOL    HW2 4511   2.129   4.941   1.121 -3.5301 -0.8693 -3.4952
 1307SOL     OW 4512   3.913   4.500   2.081 -0.2557  0.2925 -0.5667
 1307SOL    HW1 4513   3.896   4.434   2.148 -2.5609  1.6501  0.3164
 1307SOL    HW2 4514   3.967   4.565   2.125 -0.7658  0.5950 -0.3771
 1308SOL     OW 4515   1.644   2.028   3.126 -0.4907 -0.1453  0.3765
 1308SOL    HW1 4516   1.576   2.060   3.066  0.8381  0.7200 -0.7650
 1308SOL    HW2 4517   1.725   2.066   3.091  0.8782 -2.7507  0.4787
 1309SOL     OW 4518   3.537   4.911   2.199 -0.3164  0.0083 -0.2836
 1309SOL    HW1 4519   3.463   4.922   2.259 -1.0892  1.2593 -1.3828
 1309SOL    HW2 4520   3.527   4.823   2.165 -1.3125  0.1444 -0.3900
 1310SOL     OW 4521   2.111   0.641   1.105  0.1981 -0.3525  0.4837
 1310SOL    HW1 4522   2.193   0.686   1.127  0.2333 -0.8666  1.4722
 1310SOL    HW2 4523   2.043   0.702   1.133  0.2451 -0.4740  0.8640
 1311SOL     OW 4524   1.849   1.790   0.661 -0.4684  0.4771  0.3139
 1311SOL    HW1 4525   1.928   1.753   0.621 -1.1284  0.6148 -1.2107
 1311SOL    HW2 4526   1.778   1.761   0.604 -1.4182  1.0890  1.1501
 1312SOL     OW 4527   1.910   5.367   2.059 -0.1751  0.0231 -0.3491
 1312SOL    HW1 4528   1.830   5.418   2.045 -0.1034 -0.3370 -2.2050
 1312SOL    HW2 4529   1.957   5.371   1.976  1.6258 -0.0285  0.6023
 1313SOL     OW 4530   1.750   2.069   1.825  0.0974  0.1251 -0.3097
 1313SOL    HW1 4531   1.840   2.097   1.843  0.2075 -0.2483 -0.2611
 1313SOL    HW2 4532   1.703   2.086   1.906  0.4612 -1.0169  0.1735
 1314SOL     OW 4533   1.667   2.542   0.299  0.0501 -0.3387  0.1447
 1314SOL    HW1 4534   1.640   2.493   0.221  0.1503 -0.8881  0.4509
 1314SOL    HW2 4535   1.651   2.482   0.371 -1.0515  0.5564  0.6629
 1315SOL     OW 4536   1.909   1.669   3.099 -0.1972  0.2231  0.0148
 1315SOL    HW1 4537   1.985   1.727   3.101  1.0196 -1.3108  1.6985
 1315SOL    HW2 4538   1.883   1.659   3.191 -1.7639 -0.1512 -0.4312
 1316SOL     OW 4539   4.015   0.267   2.170 -0.3502 -0.0262 -0.2513
 1316SOL    HW1 4540   4.026   0.173   2.157  1.5532 -0.0063  0.8323
 1316SOL    HW2 4541   4.012   0.304   2.082 -1.3687 -1.1087 -0.6926
 1317SOL     OW 4542   2.791   5.373   2.735 -0.3612 -0.1236 -0.1654
 1317SOL    HW1 4543   2.719   5.337   2.684 -2.4496  3.5589 -0.1219
 1317SOL    HW2 4544   2.770   5.351   2.826 -0.6787 -0.2103 -0.2602
 1318SOL     OW 4545   2.161   1.394   3.303 -0.1893 -0.0183  0.1743
 1318SOL    HW1 4546   2.232   1.454   3.322  1.4037 -1.3764 -1.1266
 1318SOL    HW2 4547   2.130   1.419   3.216  0.4247 -0.9593 -0.3380
 1319SOL     OW 4548   2.383   0.048   2.142  0.1278 -0.1473 -0.5669
 1319SOL    HW1 4549   2.368   0.137   2.112 -0.9287  0.1936  0.8690
 1319SOL    HW2 4550   2.401  -0.002   2.062  0.2877  1.2440 -1.4333
 1320SOL     OW 4551   0.936   1.252   1.241 -0.1390  0.1003 -0.3539
 1320SOL    HW1 4552   0.953   1.271   1.149  0.9735  0.1491 -0.1543
 1320SOL    HW2 4553   0.998   1.183   1.263  0.0686  0.5517  0.5324
 1321SOL     OW 4554   3.246   0.098  -0.012  0.5145 -0.2009  0.3375
 1321SOL    HW1 4555   3.310   0.166  -0.036 -0.4947  0.5799 -0.2421
 1321SOL    HW2 4556   3.207   0.072  -0.095  1.6958 -2.3817  0.4059
 1322SOL     OW 4557   7.351   0.199   0.423  0.5430  0.1347  0.5839
 1322SOL    HW1 4558   7.373   0.107   0.409 -1.9068 -0.6352  1.3263
 1322SOL    HW2 4559   7.288   0.219   0.353  0.0044  0.8103  1.2455
 1323SOL     OW 4560   0.590   0.165   3.288  0.5888 -0.5120 -0.3655
 1323SOL    HW1 4561   0.588   0.133   3.379 -1.9673  0.3373 -0.0186
 1323SOL    HW2 4562   0.635   0.249   3.293 -0.7243  0.1839  0.4257
 1324SOL     OW 4563   2.349   1.023   2.234 -0.3722 -0.1697 -0.2939
 1324SOL    HW1 4564   2.350   1.001   2.328  0.7030 -2.7621 -0.8266
 1324SOL    HW2 4565   2.412   0.963   2.195 -2.8469 -1.1675 -3.1237
 1325SOL     OW 4566   2.443   0.385   1.081  0.4538  0.3592 -0.0012
 1325SOL    HW1 4567   2.362   0.400   1.032  0.0387  0.2397  0.6269
 1325SOL    HW2 4568   2.490   0.468   1.077 -0.1705  0.7466  0.4611
 1326SOL     OW 4569   1.759   1.855   2.776 -0.1742 -0.6660 -0.0611
 1326SOL    HW1 4570   1.744   1.790   2.707 -0.0026 -1.9852  1.1101
 1326SOL    HW2 4571   1.672   1.869   2.814 -0.2395 -0.0600 -0.4124
 1327SOL     OW 4572   1.952   0.110   1.545 -0.4515  0.5734 -0.0777
 1327SOL    HW1 4573   2.017   0.180   1.535  0.7992 -0.3788  0.9306
 1327SOL    HW2 4574   2.003   0.029   1.534 -1.7093 -0.1961 -0.4514
 1328SOL     OW 4575   4.973   2.067   3.149 -0.5462 -0.4497 -0.3346
 1328SOL    HW1 4576   5.058   2.108   3.160  0.2356 -1.7536 -1.2619
 1328SOL    HW2 4577   4.940   2.099   3.065 -1.2288  0.4358  0.2436
 1329SOL     OW 4578   1.704   0.141   2.087 -0.8059  0.1933 -0.3357
 1329SOL    HW1 4579   1.651   0.103   2.017  0.6627 -1.2203 -0.7627
 1329SOL    HW2 4580   1.645   0.144   2.163 -1.8171 -0.2218 -1.0840
 1330SOL     OW 4581   3.004   5.401   1.276  0.1013 -0.3877 -0.2426
 1330SOL    HW1 4582   3.034   5.436   1.192  1.8101 -1.3230 -0.0658
 1330SOL    HW2 4583   2.920   5.445   1.292  0.1851  0.4817 -1.9866
 1331SOL     OW 4584   1.703   3.190   3.024  0.5033 -0.7648  0.0511
 1331SOL    HW1 4585   1.697   3.275   3.067 -0.2397 -0.9068  0.2411
 1331SOL    HW2 4586   1.785   3.152   3.055  0.6325 -0.2951  0.2845
 1332SOL     OW 4587   3.115   1.176   1.691  0.4243 -0.4028 -0.1250
 1332SOL    HW1 4588   3.117   1.272   1.698  0.9392 -0.1692 -2.6756
 1332SOL    HW2 4589   3.022   1.155   1.683  0.3158 -0.1273  0.3536
 1333SOL     OW 4590   2.561   0.160   3.405 -0.2213  0.1204  0.2573
 1333SOL    HW1 4591   2.513   0.077   3.406  1.4124 -0.8749  0.3662
 1333SOL    HW2 4592   2.625   0.149   3.335 -0.3132  1.5130 -0.0648
 1334SOL     OW 4593   2.436   0.847   1.672  0.6634 -0.2976  0.3492
 1334SOL    HW1 4594   2.464   0.934   1.702 -0.5660 -0.3778  1.7983
 1334SOL    HW2 4595   2.394   0.864   1.588  3.2890  0.0517 -1.0193
 1335SOL     OW 4596   3.648   0.163   2.300  0.2172  0.0518 -0.3050
 1335SOL    HW1 4597   3.670   0.243   2.251  0.6652  0.6940  0.8900
 1335SOL    HW2 4598   3.663   0.092   2.238  0.9703  0.8215 -1.0337
 1336SOL     OW 4599   2.039   1.016   1.398 -0.0639  0.5811  0.0861
 1336SOL    HW1 4600   1.962   0.999   1.453  0.8282 -0.0905  1.1736
 1336SOL    HW2 4601   2.106   1.047   1.460  0.5893  1.0247 -0.8175
 1337SOL     OW 4602   7.120   0.115   2.248 -0.4546  0.4018  0.0399
 1337SOL    HW1 4603   7.138   0.071   2.331  1.2458  1.4329  0.2513
 1337SOL    HW2 4604   7.024   0.113   2.241 -0.5874 -0.4685  1.5948
 1338SOL     OW 4605   2.673   0.536   0.745 -0.0406  0.4160 -0.2727
 1338SOL    HW1 4606   2.584   0.502   0.746  0.2287 -0.2902  0.2924
 1338SOL    HW2 4607   2.700   0.530   0.653 -0.1985 -0.3678 -0.2697
 1339SOL     OW 4608   2.805   5.082   0.980 -0.3572 -0.2761  0.2473
 1339SOL    HW1 4609   2.826   5.157   0.924 -1.1174 -0.1270  0.1508
 1339SOL    HW2 4610   2.842   5.007   0.934  1.1096  0.1248  0.7437
 1340SOL     OW 4611   3.464   0.385   0.413 -0.5630 -0.3832  0.0634
 1340SOL    HW1 4612   3.476   0.343   0.327  1.3274  1.2828 -0.5825
 1340SOL    HW2 4613   3.548   0.371   0.458 -1.3139 -0.6793  1.4275
 1341SOL     OW 4614   4.070   2.576   0.875  0.5812  0.2935 -0.2541
 1341SOL    HW1 4615   4.134   2.643   0.852 -0.6465  0.7044 -2.7319
 1341SOL    HW2 4616   3.986   2.621   0.878  0.0052 -0.7494  0.1180
 1342SOL     OW 4617   2.832   1.984   1.992 -0.0141  0.1289 -0.7407
 1342SOL    HW1 4618   2.797   1.921   2.054 -1.4788  0.2947 -1.3557
 1342SOL    HW2 4619   2.912   1.943   1.959  0.4599 -0.2240  0.7694
 1343SOL     OW 4620   3.020   0.519   2.339  0.2757  0.2864  0.3688
 1343SOL    HW1 4621   2.939   0.500   2.385  1.1396 -2.0723  1.1145
 1343SOL    HW2 4622   3.089   0.499   2.402  1.4687  1.6846 -0.4173
 1344SOL     OW 4623   3.943   1.043   1.004 -0.4288  0.5562 -0.2791
 1344SOL    HW1 4624   4.037   1.051   0.990 -0.0954 -0.1538  1.3213
 1344SOL    HW2 4625   3.935   0.999   1.089 -2.1898  2.6047  0.7165
 1345SOL     OW 4626   4.479   4.961   0.650  0.5670 -0.0834 -0.1406
 1345SOL    HW1 4627   4.543   4.890   0.653  1.0319  0.3074 -0.6545
 1345SOL    HW2 4628   4.405   4.928   0.701  0.6990 -1.0200 -0.5213
 1346SOL     OW 4629   2.255   5.352   0.906  0.3313  0.1668  0.0594
 1346SOL    HW1 4630   2.188   5.350   0.974  1.1407 -0.6344  0.8515
 1346SOL    HW2 4631   2.324   5.408   0.941  0.3313  0.5391 -0.5191
 1347SOL     OW 4632   0.069   4.543   0.690  0.3243 -0.3087  0.1774
 1347SOL    HW1 4633  -0.017   4.584   0.703  0.1081 -0.6849 -0.0263
 1347SOL    HW2 4634   0.063   4.459   0.735  0.5653 -0.3651  0.1070
 1348SOL     OW 4635   0.973   4.887   1.740  0.3017 -0.4357  0.1509
 1348SOL    HW1 4636   1.025   4.831   1.799  1.3390  0.5436  0.2084
 1348SOL    HW2 4637   1.021   4.884   1.657  0.3257  0.2899  0.1350
 1349SOL     OW 4638   2.913   0.714   0.651  0.3142  0.3389  0.1210
 1349SOL    HW1 4639   2.979   0.662   0.606 -2.4380 -1.5623 -2.0162
 1349SOL    HW2 4640   2.864   0.651   0.703  0.2407  1.7439  1.8617
 1350SOL     OW 4641   3.949   4.774   0.147  0.5386  0.2010 -0.0057
 1350SOL    HW1 4642   3.927   4.706   0.084  2.2774  1.9485 -2.7360
 1350SOL    HW2 4643   4.043   4.763   0.164  0.0136 -0.6127  2.9331
 1351SOL     OW 4644   1.294   5.070   0.756 -0.4877 -0.0994  0.0411
 1351SOL    HW1 4645   1.328   5.140   0.700  0.9482  0.5644  1.6824
 1351SOL    HW2 4646   1.212   5.104   0.791  1.1125  1.6676  2.3468
 1352SOL     OW 4647   0.780   4.446   0.524 -0.1518 -0.0074 -0.0928
 1352SOL    HW1 4648   0.755   4.494   0.603  0.3662 -0.7784  0.5549
 1352SOL    HW2 4649   0.765   4.508   0.452 -0.6292  0.7034  0.6067
 1353SOL     OW 4650   3.623   1.927   0.508 -0.2847  0.2218  0.3366
 1353SOL    HW1 4651   3.670   1.996   0.556 -0.3013 -0.3131  1.1320
 1353SOL    HW2 4652   3.684   1.854   0.505 -0.8426 -0.2808  0.8829
 1354SOL     OW 4653   4.876   4.298   0.907 -0.2481  0.6418  0.1364
 1354SOL    HW1 4654   4.872   4.203   0.894  0.3859  0.5780  0.3896
 1354SOL    HW2 4655   4.913   4.332   0.826  0.0549  0.6172  0.2636
 1355SOL     OW 4656   2.866   0.835   0.343  0.1247 -0.0470  0.2578
 1355SOL    HW1 4657   2.903   0.786   0.417  0.1763  0.8458  0.8321
 1355SOL    HW2 4658   2.871   0.773   0.270  1.7856 -0.3197  0.5573
 1356SOL     OW 4659   1.179   3.141   2.980 -0.5538  0.5203 -0.3305
 1356SOL    HW1 4660   1.226   3.069   2.939 -0.3654  0.0254  0.7356
 1356SOL    HW2 4661   1.245   3.210   2.990 -0.5623  0.5849 -0.6801
 1357SOL     OW 4662   2.076   0.136   2.578 -0.0709  0.6536 -0.0258
 1357SOL    HW1 4663   2.050   0.044   2.588  1.3141  0.2723  0.3987
 1357SOL    HW2 4664   2.042   0.162   2.493 -0.1457 -0.3829 -0.3314
 1358SOL     OW 4665   4.303   5.079   0.925 -0.0734  0.7431  0.4108
 1358SOL    HW1 4666   4.389   5.092   0.965  0.7687  0.8825 -1.3516
 1358SOL    HW2 4667   4.303   5.138   0.850 -0.6499 -1.1612 -1.1579
 1359SOL     OW 4668   3.197   0.592   1.209 -1.1030 -0.1372  0.0023
 1359SOL    HW1 4669   3.184   0.647   1.131 -0.4901 -1.2454 -0.9195
 1359SOL    HW2 4670   3.112   0.552   1.225 -1.1975 -0.0228 -0.2019
 1360SOL     OW 4671   0.874   4.862   1.370  0.5782 -0.0187 -0.8293
 1360SOL    HW1 4672   0.810   4.871   1.441  1.4098  0.8888 -0.1578
 1360SOL    HW2 4673   0.836   4.797   1.311 -1.4781  1.2630 -1.0316
 1361SOL     OW 4674   3.831   1.728   0.553 -0.3148  0.7990  0.0665
 1361SOL    HW1 4675   3.902   1.665   0.566 -0.4616  0.7096  0.4497
 1361SOL    HW2 4676   3.797   1.745   0.641  0.3035  2.1056  0.0637
 1362SOL     OW 4677   1.928   1.053   2.285 -0.5526 -0.2196 -0.1779
 1362SOL    HW1 4678   1.982   0.998   2.341  0.2724  0.4976 -0.2529
 1362SOL    HW2 4679   1.937   1.016   2.197  0.7121  0.5286 -0.3897
 1363SOL     OW 4680   5.014   0.342   2.652 -0.0764 -0.4642  0.0158
 1363SOL    HW1 4681   5.071   0.273   2.617  1.5510 -0.2359  2.0400
 1363SOL    HW2 4682   5.053   0.423   2.620 -0.0681 -0.3567  0.2986
 1364SOL     OW 4683   2.093   0.886   1.790 -0.2459 -0.0451 -0.2345
 1364SOL    HW1 4684   2.161   0.820   1.801 -1.5136 -1.4629 -0.4849
 1364SOL    HW2 4685   2.065   0.907   1.879 -0.2358 -0.3096 -0.1666
 1365SOL     OW 4686   2.214   0.650   1.851  0.1455 -0.1837 -0.0254
 1365SOL    HW1 4687   2.288   0.663   1.910 -1.7291  0.0731  2.4164
 1365SOL    HW2 4688   2.213   0.556   1.834  1.4874 -0.0851 -0.7906
 1366SOL     OW 4689   2.657   0.903   0.689  0.1408 -0.3925 -0.0657
 1366SOL    HW1 4690   2.564   0.884   0.699 -0.0637  0.7218  0.2645
 1366SOL    HW2 4691   2.697   0.817   0.674 -0.8768 -0.9357  0.2077
 1367SOL     OW 4692   2.777   2.035   0.805 -0.8278 -0.9398 -0.0290
 1367SOL    HW1 4693   2.844   2.042   0.737  0.9761 -0.2860  1.7034
 1367SOL    HW2 4694   2.814   1.974   0.869 -2.1510 -0.9931  0.7294
 1368SOL     OW 4695   3.869   0.475   2.266  0.0330 -0.1317 -0.3743
 1368SOL    HW1 4696   3.776   0.455   2.254  0.0167 -0.7018  0.6100
 1368SOL    HW2 4697   3.913   0.391   2.254  0.4636  0.1968 -1.1605
 1369SOL     OW 4698   3.008   0.576   0.446 -0.1904  0.5948  0.6671
 1369SOL    HW1 4699   3.090   0.539   0.412 -0.5585  0.5922 -0.2440
 1369SOL    HW2 4700   2.940   0.542   0.388 -0.7616  1.1675  0.9806
 1370SOL     OW 4701   2.357   1.849   1.877  0.2096  0.2145 -0.2147
 1370SOL    HW1 4702   2.446   1.885   1.876  0.3248 -0.0419 -1.5370
 1370SOL    HW2 4703   2.358   1.782   1.809 -1.0214  0.2708 -0.3108
 1371SOL     OW 4704   2.034   2.026   1.825 -0.1053  0.6581  0.1685
 1371SOL    HW1 4705   2.015   1.933   1.812  1.8087  0.3435 -0.7035
 1371SOL    HW2 4706   2.095   2.027   1.899 -0.0409  1.2246  0.1090
 1372SOL     OW 4707   2.635   4.830   1.186  0.4146  0.8281 -0.0635
 1372SOL    HW1 4708   2.716   4.872   1.155  1.4881 -1.4723 -0.6553
 1372SOL    HW2 4709   2.666   4.760   1.244 -1.1621  0.0754 -0.0890
 1373SOL     OW 4710   3.208   1.790   0.496 -0.4053 -0.0116  0.4696
 1373SOL    HW1 4711   3.275   1.773   0.430  0.3675 -1.5726  1.6084
 1373SOL    HW2 4712   3.125   1.786   0.447  0.2214  0.8205 -0.7363
 1374SOL     OW 4713   3.736   0.542   0.301 -0.4392 -0.2086 -0.2826
 1374SOL    HW1 4714   3.775   0.593   0.371  0.6235 -0.7015 -0.5010
 1374SOL    HW2 4715   3.663   0.596   0.269 -0.8641  0.0621  1.1041
 1375SOL     OW 4716   2.329   5.396   1.228 -0.1251  0.2312  0.4538
 1375SOL    HW1 4717   2.305   5.370   1.317 -2.6651  1.7351  0.3113
 1375SOL    HW2 4718   2.314   5.490   1.226  0.4686  0.3239 -1.4163
 1376SOL     OW 4719   1.343   0.192   1.521 -0.1920 -0.4363 -0.7020
 1376SOL    HW1 4720   1.425   0.205   1.568 -1.1022 -1.2751  1.1932
 1376SOL    HW2 4721   1.358   0.114   1.468 -0.3433 -1.7925  1.1522
 1377SOL     OW 4722   2.744   3.503   3.310 -0.5775 -0.1471 -0.0502
 1377SOL    HW1 4723   2.696   3.549   3.242 -1.4076 -0.6839  0.1632
 1377SOL    HW2 4724   2.681   3.489   3.381 -0.3385 -1.5038 -0.0655
 1378SOL     OW 4725   2.641   2.132   3.243  0.2417  0.1779  0.5865
 1378SOL    HW1 4726   2.692   2.091   3.172  0.1365 -0.1680  0.7069
 1378SOL    HW2 4727   2.550   2.122   3.216  0.1487 -0.8703  1.2453
 1379SOL     OW 4728   3.286   1.411   2.537  0.4925 -0.1356  0.1308
 1379SOL    HW1 4729   3.300   1.502   2.511 -0.5983  0.1342  0.4319
 1379SOL    HW2 4730   3.343   1.398   2.612  0.6556  0.2969  0.0835
 1380SOL     OW 4731   4.503   1.514   1.507 -0.4919  0.4584  0.5542
 1380SOL    HW1 4732   4.553   1.563   1.441 -0.5892  0.4625  0.4839
 1380SOL    HW2 4733   4.454   1.449   1.457 -0.5706  0.4650  0.6229
 1381SOL     OW 4734   1.283   1.605  -0.002 -0.3191  0.5691 -0.0221
 1381SOL    HW1 4735   1.200   1.624  -0.046 -0.6490 -1.1588 -0.1963
 1381SOL    HW2 4736   1.346   1.597  -0.073 -0.6036 -0.9859 -0.1261
 1382SOL     OW 4737   2.787   2.367   2.898 -0.3121  0.4015  0.1905
 1382SOL    HW1 4738   2.839   2.425   2.843 -0.2787  0.6350  0.4655
 1382SOL    HW2 4739   2.730   2.425   2.948 -0.0026  0.2264  0.7555
 1383SOL     OW 4740   3.156   1.159   2.573  0.5823  0.7916 -0.4909
 1383SOL    HW1 4741   3.193   1.230   2.521  0.8000  1.3003  0.3574
 1383SOL    HW2 4742   3.182   1.177   2.663 -0.9226  0.6586  0.0050
 1384SOL     OW 4743   3.362   4.296   0.125 -0.0862  0.0356  0.2199
 1384SOL    HW1 4744   3.321   4.321   0.207 -0.4260  0.8911 -0.1949
 1384SOL    HW2 4745   3.301   4.326   0.057  0.3175 -0.4055 -0.3557
 1385SOL     OW 4746   1.261   0.784   0.272  0.5121 -0.6905  0.8875
 1385SOL    HW1 4747   1.343   0.832   0.263  0.3524 -0.8660 -2.5467
 1385SOL    HW2 4748   1.202   0.846   0.315  1.0484  1.3486 -1.1275
 1386SOL     OW 4749   3.324   0.335   2.215 -0.4715  0.3216  0.4175
 1386SOL    HW1 4750   3.318   0.261   2.274  2.6683  0.0887  0.6186
 1386SOL    HW2 4751   3.318   0.297   2.127 -2.7930  0.3943  0.4810
 1387SOL     OW 4752   3.210   0.820   0.032 -0.2654 -0.4264 -0.0804
 1387SOL    HW1 4753   3.194   0.817  -0.062 -1.1594  0.1898  0.0389
 1387SOL    HW2 4754   3.294   0.866   0.040 -1.7121  2.5550 -0.4889
 1388SOL     OW 4755   4.819   1.780   3.092 -0.5700  0.0970 -0.5769
 1388SOL    HW1 4756   4.800   1.840   3.164 -0.2976  2.6539 -2.4623
 1388SOL    HW2 4757   4.903   1.811   3.057  0.0506 -2.0201 -1.0801
 1389SOL     OW 4758   2.578   0.895   1.066 -0.2437  0.2311  0.1481
 1389SOL    HW1 4759   2.551   0.987   1.068  0.6249  0.4977  0.3718
 1389SOL    HW2 4760   2.603   0.877   1.157 -0.8102 -0.3591  0.1929
 1390SOL     OW 4761   2.491   0.783   0.321  0.3562 -0.2107  0.1555
 1390SOL    HW1 4762   2.406   0.740   0.312  0.4245 -0.8008  1.7716
 1390SOL    HW2 4763   2.549   0.712   0.351  1.3490  0.2440 -0.6584
 1391SOL     OW 4764   2.789   2.752   2.677 -0.0981 -0.3066 -0.8364
 1391SOL    HW1 4765   2.805   2.662   2.704 -1.5811 -0.8687 -1.7247
 1391SOL    HW2 4766   2.842   2.805   2.737  0.5519 -1.7403 -0.1030
 1392SOL     OW 4767   2.792   0.420   2.090 -0.1187 -0.1628 -0.4095
 1392SOL    HW1 4768   2.847   0.350   2.055 -0.6211 -0.9038  0.2653
 1392SOL    HW2 4769   2.800   0.412   2.185 -1.2980 -0.2069 -0.3027
 1393SOL     OW 4770   1.693   0.871   0.693 -0.0049 -0.5395 -0.4311
 1393SOL    HW1 4771   1.700   0.956   0.736 -2.5899 -0.1400 -0.5974
 1393SOL    HW2 4772   1.775   0.861   0.645  1.7432  0.3517  2.1300
 1394SOL     OW 4773   2.688   1.863   0.428 -0.0132 -0.0234  0.2885
 1394SOL    HW1 4774   2.614   1.841   0.370 -1.4704  1.1631  1.6231
 1394SOL    HW2 4775   2.668   1.951   0.459  2.0470  0.3621  0.6252
 1395SOL     OW 4776   3.068   4.592   2.579 -0.2996  0.1033 -0.0589
 1395SOL    HW1 4777   3.017   4.657   2.530  0.7296  0.1467 -1.1169
 1395SOL    HW2 4778   3.045   4.508   2.538  2.0962  0.3314 -2.1133
 1396SOL     OW 4779   2.058   1.757   1.797 -0.1129  0.0490 -0.0940
 1396SOL    HW1 4780   2.105   1.726   1.874 -0.4136 -0.9037 -0.2747
 1396SOL    HW2 4781   2.022   1.677   1.758 -1.7367  0.7220 -0.0462
 1397SOL     OW 4782   1.484   2.696   0.588  0.6457 -0.0690  0.1762
 1397SOL    HW1 4783   1.534   2.711   0.668  1.1223  0.6848 -0.2520
 1397SOL    HW2 4784   1.542   2.643   0.534  1.1375  1.0859 -0.4556
 1398SOL     OW 4785   3.168   0.455   1.535  0.1308  0.0634  0.0574
 1398SOL    HW1 4786   3.127   0.423   1.455  1.1498  2.0698 -1.3536
 1398SOL    HW2 4787   3.235   0.390   1.557  0.2648 -0.1933 -1.0892
 1399SOL     OW 4788   3.477   1.144   2.419 -0.0331 -0.0501 -0.0293
 1399SOL    HW1 4789   3.444   1.079   2.481 -1.0917  1.0404  0.5895
 1399SOL    HW2 4790   3.400   1.168   2.367  0.1634  1.2194  0.2332
 1400SOL     OW 4791   2.756   4.974   0.561 -0.5819 -0.1645  0.1993
 1400SOL    HW1 4792   2.843   4.992   0.525 -0.1354 -0.8599  0.8969
 1400SOL    HW2 4793   2.767   4.987   0.656 -1.4024  0.3599  0.2302
 1401SOL     OW 4794   3.618   1.372   1.968  0.3326  0.1173  0.7179
 1401SOL    HW1 4795   3.641   1.286   1.934 -1.2535 -0.3145  0.6386
 1401SOL    HW2 4796   3.698   1.424   1.959  0.3163 -0.2012 -2.8778
 1402SOL     OW 4797   1.916   3.045   3.087 -0.2226 -0.1229  0.3521
 1402SOL    HW1 4798   1.995   3.098   3.101 -0.5558  1.4109 -2.6165
 1402SOL    HW2 4799   1.941   2.983   3.018 -1.8527  1.3120 -1.6732
 1403SOL     OW 4800   3.153   0.892   0.288  0.0077 -0.3331 -0.1138
 1403SOL    HW1 4801   3.087   0.828   0.316  0.6381 -1.6882 -1.5587
 1403SOL    HW2 4802   3.173   0.868   0.198 -0.1017  2.2906 -0.8887
 1404SOL     OW 4803   1.591   0.949   3.120  0.3667  0.1854  0.0502
 1404SOL    HW1 4804   1.587   1.034   3.164 -0.5200 -0.8189  2.0036
 1404SOL    HW2 4805   1.505   0.939   3.080 -0.9995 -1.3625  3.0601
 1405SOL     OW 4806   2.299   0.665   2.237 -0.2956  0.3748  0.5907
 1405SOL    HW1 4807   2.221   0.710   2.205 -1.1934 -1.5852 -0.1542
 1405SOL    HW2 4808   2.267   0.608   2.307  0.8000  0.8440  1.5073
 1406SOL     OW 4809   5.377   3.670   0.437  0.6034 -0.2382 -0.7430
 1406SOL    HW1 4810   5.288   3.687   0.406  0.0762 -0.5466  0.5446
 1406SOL    HW2 4811   5.414   3.757   0.452  0.8631 -0.0818 -2.1607
 1407SOL     OW 4812   2.813   1.518   2.328  0.4804 -0.4051 -0.0964
 1407SOL    HW1 4813   2.840   1.523   2.237 -1.1230 -1.2542 -0.6597
 1407SOL    HW2 4814   2.783   1.428   2.340  2.4225 -0.8663  1.8285
 1408SOL     OW 4815   1.331   0.338   0.906 -0.4479 -0.0920 -0.2733
 1408SOL    HW1 4816   1.294   0.331   0.994  0.9659  0.2380  0.3862
 1408SOL    HW2 4817   1.349   0.247   0.881 -1.6085 -0.2518 -0.5852
 1409SOL     OW 4818   4.094   1.582   2.919  0.2805  0.0789 -0.1715
 1409SOL    HW1 4819   4.181   1.611   2.949  0.3108 -0.6240  0.4478
 1409SOL    HW2 4820   4.035   1.607   2.990 -0.0293  0.5101 -0.5702
 1410SOL     OW 4821   2.682   3.234   0.115  0.4437 -0.2538 -0.3784
 1410SOL    HW1 4822   2.724   3.271   0.193 -2.7423  0.7459  1.0263
 1410SOL    HW2 4823   2.657   3.146   0.141 -1.2570  0.3181  0.0981
 1411SOL     OW 4824   4.107   0.886   2.830 -0.1013  0.0745  0.4327
 1411SOL    HW1 4825   4.182   0.829   2.848 -0.2365 -0.1675  0.2219
 1411SOL    HW2 4826   4.081   0.865   2.741 -2.4234 -2.1764  1.5093
 1412SOL     OW 4827   1.305   1.323   3.246  0.0999  0.3126 -0.1004
 1412SOL    HW1 4828   1.394   1.317   3.213  0.3512  1.5556  0.2870
 1412SOL    HW2 4829   1.312   1.378   3.323 -0.6115 -1.7792  1.5549
 1413SOL     OW 4830   3.614   1.387   0.838 -1.3533 -0.5034  0.8837
 1413SOL    HW1 4831   3.642   1.302   0.870  0.1374  0.0917  1.2736
 1413SOL    HW2 4832   3.519   1.382   0.834 -1.2617 -2.4705  0.0543
 1414SOL     OW 4833   3.470   0.812   3.106  0.2910 -0.5332 -0.1155
 1414SOL    HW1 4834   3.566   0.814   3.101  0.4067 -0.4493  1.5600
 1414SOL    HW2 4835   3.442   0.882   3.048  1.2466 -0.4995 -0.5642
 1415SOL     OW 4836   1.372   1.036   1.925 -0.5199 -0.0378 -0.0239
 1415SOL    HW1 4837   1.454   1.076   1.896  0.1089 -1.8040 -0.8046
 1415SOL    HW2 4838   1.343   1.091   1.998  1.2356  0.7435  0.1360
 1416SOL     OW 4839   1.896   2.068   2.679  0.3023  0.2993 -0.4061
 1416SOL    HW1 4840   1.849   1.994   2.718 -0.1116  0.6583 -0.2103
 1416SOL    HW2 4841   1.967   2.028   2.629  0.1279 -0.2253 -0.2415
 1417SOL     OW 4842   3.131   2.397   3.500  0.0637  0.2377 -0.0357
 1417SOL    HW1 4843   3.216   2.441   3.506 -0.5128  1.2394  1.9069
 1417SOL    HW2 4844   3.088   2.438   3.426  0.2297  1.7634  0.6694
 1418SOL     OW 4845   2.417   1.973   3.073 -0.2123 -0.1218  0.2771
 1418SOL    HW1 4846   2.443   1.890   3.114  0.0729  1.7200  4.2374
 1418SOL    HW2 4847   2.321   1.969   3.071 -0.2141 -0.3759  0.7752
 1419SOL     OW 4848   3.375   0.335   1.123  0.4868  0.0967  0.1795
 1419SOL    HW1 4849   3.301   0.364   1.176  0.5946  1.3967 -0.3457
 1419SOL    HW2 4850   3.447   0.327   1.185  0.2151  0.0445  0.4921
 1420SOL     OW 4851   4.138   0.014   3.032 -0.9161 -0.1515  0.3893
 1420SOL    HW1 4852   4.113   0.102   3.059  0.2195 -0.0030  1.0179
 1420SOL    HW2 4853   4.115   0.009   2.940 -1.5508  0.5898  0.5004
 1421SOL     OW 4854   4.150   4.728   1.430 -0.1332 -0.4438  0.8541
 1421SOL    HW1 4855   4.224   4.768   1.476 -0.6979 -0.0079  1.3927
 1421SOL    HW2 4856   4.094   4.802   1.405 -0.0456 -0.7063 -0.1779
 1422SOL     OW 4857   1.603   4.226   1.780  0.2940 -0.2414 -0.9030
 1422SOL    HW1 4858   1.515   4.189   1.786 -0.1996  0.6206 -2.3732
 1422SOL    HW2 4859   1.595   4.315   1.814  0.8276 -0.4806 -0.1249
 1423SOL     OW 4860   3.222   0.095   1.750 -0.6384  0.1411  0.4693
 1423SOL    HW1 4861   3.243   0.013   1.706  4.1169  1.4782 -0.3172
 1423SOL    HW2 4862   3.176   0.146   1.683  0.0678 -0.4176 -0.4659
 1424SOL     OW 4863   2.392   0.617   0.683  0.5332 -0.1174 -0.1152
 1424SOL    HW1 4864   2.401   0.709   0.658  0.1421  0.0815  0.4704
 1424SOL    HW2 4865   2.299   0.606   0.702  0.3940 -0.8822 -1.1351
 1425SOL     OW 4866   2.173   5.187   2.153  0.4953  0.1942 -0.8815
 1425SOL    HW1 4867   2.243   5.251   2.161  0.9783 -0.4687  0.6781
 1425SOL    HW2 4868   2.141   5.196   2.063  1.7302  1.3769 -1.2234
 1426SOL     OW 4869   0.938   2.305   3.155 -0.1737  0.2567 -0.3925
 1426SOL    HW1 4870   0.921   2.229   3.211  0.6457  0.1975 -0.2176
 1426SOL    HW2 4871   0.947   2.269   3.067  0.4340  0.1232 -0.2770
 1427SOL     OW 4872   3.156   3.038   1.515  0.3701 -0.0477 -0.4965
 1427SOL    HW1 4873   3.203   2.995   1.444 -0.3482  0.2640 -1.1849
 1427SOL    HW2 4874   3.224   3.064   1.577  0.9875 -0.5298 -0.9581
 1428SOL     OW 4875   3.872   0.257   3.091 -0.0469  0.3410 -0.0620
 1428SOL    HW1 4876   3.953   0.299   3.062  0.7259 -0.3400  1.0324
 1428SOL    HW2 4877   3.803   0.311   3.054  0.8542  0.0362 -2.3747
 1429SOL     OW 4878   0.932   1.414   1.004 -0.1819  0.3218 -0.7892
 1429SOL    HW1 4879   0.895   1.461   1.078 -0.9527  0.0777 -1.0124
 1429SOL    HW2 4880   0.980   1.481   0.955 -0.4480  0.6740 -0.5728
 1430SOL     OW 4881   3.306   1.663   0.723 -0.5540 -0.4431  0.4532
 1430SOL    HW1 4882   3.252   1.682   0.800 -2.6821 -2.7796 -0.3124
 1430SOL    HW2 4883   3.258   1.702   0.650  0.8050  0.6672  0.0947
 1431SOL     OW 4884   5.521   5.064   2.400  0.3583 -1.1520 -0.1438
 1431SOL    HW1 4885   5.553   5.125   2.467 -1.0970 -0.8897  0.3392
 1431SOL    HW2 4886   5.550   5.102   2.317 -0.9999  0.5202  0.1132
 1432SOL     OW 4887   1.607   1.367   1.969 -0.0662 -0.6846  0.0374
 1432SOL    HW1 4888   1.566   1.399   2.049  0.2451 -0.4825  0.1198
 1432SOL    HW2 4889   1.701   1.367   1.989  0.1808  1.1085 -0.9297
 1433SOL     OW 4890   5.050   5.008   2.647 -0.3096  0.3187 -0.3508
 1433SOL    HW1 4891   4.976   5.068   2.648  1.2375  2.4233 -1.6348
 1433SOL    HW2 4892   5.066   4.991   2.554  0.7056 -0.1778 -0.0974
 1434SOL     OW 4893   3.490   5.028   3.141  0.0629  0.4261  0.6300
 1434SOL    HW1 4894   3.546   5.100   3.110 -0.4512  1.1290  1.2993
 1434SOL    HW2 4895   3.551   4.958   3.164  0.5927  0.7677  0.2785
 1435SOL     OW 4896   5.162   0.126   2.616  0.0054  0.1546 -0.0150
 1435SOL    HW1 4897   5.188   0.083   2.697  0.3418  0.1666 -0.1150
 1435SOL    HW2 4898   5.187   0.065   2.547  1.2360  0.8434 -0.2080
 1436SOL     OW 4899   0.144   2.523   2.003 -0.4615  0.1709  0.3270
 1436SOL    HW1 4900   0.219   2.470   1.977 -1.3746 -0.6022 -0.8409
 1436SOL    HW2 4901   0.074   2.459   2.020 -1.0104  0.9004  0.9152
 1437SOL     OW 4902   3.934   0.622   2.512 -0.2614 -0.9623 -0.3042
 1437SOL    HW1 4903   3.838   0.629   2.516 -0.2767 -0.3922 -1.2696
 1437SOL    HW2 4904   3.951   0.578   2.429  0.3782  1.4761 -1.5619
 1438SOL     OW 4905   3.712   5.236   2.336 -0.3219 -0.7162 -0.2268
 1438SOL    HW1 4906   3.747   5.152   2.367 -0.7774 -0.5199  0.8768
 1438SOL    HW2 4907   3.781   5.299   2.354 -0.5315 -0.6260  0.2881
 1439SOL     OW 4908   2.252   0.500   2.745  0.4171  0.1045 -0.3870
 1439SOL    HW1 4909   2.265   0.408   2.766 -0.8239 -0.0663 -0.3018
 1439SOL    HW2 4910   2.340   0.538   2.749  0.9451 -1.0630 -0.4221
 1440SOL     OW 4911   2.145   2.138   2.052  0.9619 -0.1901 -0.0701
 1440SOL    HW1 4912   2.103   2.214   2.011  1.1457 -0.0317  0.0310
 1440SOL    HW2 4913   2.233   2.137   2.016  1.0149 -0.2557  0.0597
 1441SOL     OW 4914   1.481   1.919   2.765 -0.1334 -0.0438 -0.1694
 1441SOL    HW1 4915   1.462   1.825   2.758 -0.2148 -0.0521  0.1439
 1441SOL    HW2 4916   1.431   1.959   2.694  0.0749 -0.2605 -0.4428
 1442SOL     OW 4917   4.602   5.327   1.426  0.1114  0.2491  0.1429
 1442SOL    HW1 4918   4.612   5.397   1.361  0.3964 -0.8194 -1.0154
 1442SOL    HW2 4919   4.512   5.336   1.457  0.0781  0.9889 -0.1479
 1443SOL     OW 4920   3.576   4.818   3.467  0.0230  0.0737 -0.2219
 1443SOL    HW1 4921   3.632   4.791   3.395 -1.4120  0.2132 -1.4460
 1443SOL    HW2 4922   3.625   4.796   3.546  2.1405  1.0034 -1.2176
 1444SOL     OW 4923   3.873   1.004   0.049 -0.1415  0.2146  0.3977
 1444SOL    HW1 4924   3.939   1.061   0.087  0.9431  0.2244 -1.3857
 1444SOL    HW2 4925   3.823   0.971   0.124  1.8372  0.2479  1.8023
 1445SOL     OW 4926   2.444   2.569   0.091  0.3719  0.0896 -0.1325
 1445SOL    HW1 4927   2.500   2.601   0.161  0.8734 -1.4488  0.2171
 1445SOL    HW2 4928   2.484   2.602   0.011  1.5477 -0.6169  0.1409
 1446SOL     OW 4929   1.881   0.567   0.564 -0.3470  0.3584  0.4536
 1446SOL    HW1 4930   1.902   0.609   0.481 -0.2813  0.0472  0.3088
 1446SOL    HW2 4931   1.785   0.564   0.566 -0.3455 -0.1040  0.1413
 1447SOL     OW 4932   1.010   1.788   3.170 -0.0254  0.0341  0.3566
 1447SOL    HW1 4933   0.987   1.877   3.146  0.6514  0.4522  1.2196
 1447SOL    HW2 4934   0.970   1.734   3.102 -2.0623  0.8332  0.8723
 1448SOL     OW 4935   0.412   0.667   1.870 -0.0478  0.4775 -0.1037
 1448SOL    HW1 4936   0.505   0.687   1.861 -0.3314  1.3271 -1.3887
 1448SOL    HW2 4937   0.378   0.735   1.927  0.2525 -0.3203  1.0667
 1449SOL     OW 4938   3.990   4.555   2.518 -0.6612  0.0797  0.1224
 1449SOL    HW1 4939   4.016   4.597   2.436  0.4704  0.4612  0.6635
 1449SOL    HW2 4940   4.022   4.614   2.587 -1.4816 -0.2954  0.8480
 1450SOL     OW 4941   1.121   0.873   3.293 -0.0731 -0.7026  0.4483
 1450SOL    HW1 4942   1.153   0.945   3.239  0.2785 -0.6340  0.7430
 1450SOL    HW2 4943   1.191   0.857   3.356 -0.5488 -0.6649  0.9961
 1451SOL     OW 4944   2.988   0.853   2.256 -0.4390  0.3810  0.4868
 1451SOL    HW1 4945   3.048   0.779   2.264  0.1571  0.9215  1.1166
 1451SOL    HW2 4946   2.963   0.854   2.164  0.5874  0.1939  0.1957
 1452SOL     OW 4947   2.822   1.303   1.868 -0.2867  0.1122 -0.1391
 1452SOL    HW1 4948   2.807   1.359   1.792  0.9046  0.3230 -0.2361
 1452SOL    HW2 4949   2.752   1.325   1.929 -0.9740  0.2847 -0.9824
 1453SOL     OW 4950   3.831   0.676   2.882 -0.6800  0.3209 -0.4504
 1453SOL    HW1 4951   3.820   0.742   2.814  0.2858 -0.4173 -1.3507
 1453SOL    HW2 4952   3.807   0.721   2.964 -0.8221  1.5275 -1.1386
 1454SOL     OW 4953   1.945   2.918   2.432  0.3573 -0.5921  0.1131
 1454SOL    HW1 4954   2.011   2.960   2.488  1.4504 -0.4265 -1.2677
 1454SOL    HW2 4955   1.882   2.988   2.414  1.0092 -0.1237 -0.3894
 1455SOL     OW 4956   0.801   2.272   2.468 -0.4032 -0.3276  0.2869
 1455SOL    HW1 4957   0.712   2.257   2.436 -1.5438 -1.9673  3.6940
 1455SOL    HW2 4958   0.810   2.367   2.472 -1.7211 -0.1421 -0.7889
 1456SOL     OW 4959   1.992   1.523   2.153  0.1766 -0.2787 -0.5459
 1456SOL    HW1 4960   2.001   1.460   2.225  0.7054  0.0233 -0.3360
 1456SOL    HW2 4961   2.061   1.588   2.170  0.4350 -0.3030 -1.4307
 1457SOL     OW 4962   2.226   2.077   3.390  0.4064  0.5153 -0.7555
 1457SOL    HW1 4963   2.270   2.159   3.413  0.3155  0.4217 -0.2444
 1457SOL    HW2 4964   2.276   2.009   3.434 -0.0151  0.3747 -0.4810
 1458SOL     OW 4965   5.790   4.465   1.487 -0.1563  0.6295  0.1898
 1458SOL    HW1 4966   5.869   4.441   1.438 -0.5178  0.8225 -0.4954
 1458SOL    HW2 4967   5.796   4.560   1.496 -0.4844  0.6818 -0.1596
 1459SOL     OW 4968   2.092   2.186   3.165  0.1932  0.3687  0.1792
 1459SOL    HW1 4969   2.160   2.248   3.140  0.0901  0.2170 -0.5078
 1459SOL    HW2 4970   2.124   2.145   3.244  2.0813 -1.4615 -1.4209
 1460SOL     OW 4971   1.900   4.545   0.391 -0.9875 -0.5018  0.5539
 1460SOL    HW1 4972   1.838   4.503   0.332 -2.3666  0.6818  1.1076
 1460SOL    HW2 4973   1.878   4.638   0.387  0.6301 -0.0692  0.9357
 1461SOL     OW 4974   7.424   1.763   1.027  0.1668 -0.3865 -0.1568
 1461SOL    HW1 4975   7.486   1.703   1.067  0.2388 -1.0417 -1.1995
 1461SOL    HW2 4976   7.474   1.809   0.959  0.1547  0.9978  0.7293
 1462SOL     OW 4977   1.923   0.229   3.297  0.2570 -0.0676 -0.7917
 1462SOL    HW1 4978   1.844   0.181   3.323 -0.1969  0.4856 -1.1348
 1462SOL    HW2 4979   1.950   0.188   3.215 -0.0320  0.1412 -0.9951
 1463SOL     OW 4980   1.156   4.641   2.473 -0.7109  0.2878  0.8961
 1463SOL    HW1 4981   1.093   4.611   2.408  1.2127 -2.3980  0.1077
 1463SOL    HW2 4982   1.106   4.642   2.555 -2.3576  0.6321 -0.0507
 1464SOL     OW 4983   2.520   5.380   1.909 -0.1965  0.3856 -0.3879
 1464SOL    HW1 4984   2.548   5.306   1.854 -0.6209 -0.2359  0.2127
 1464SOL    HW2 4985   2.601   5.420   1.939  0.0628 -0.6040  0.2812
 1465SOL     OW 4986   3.504   5.093   1.733  0.1585  0.8152  0.1444
 1465SOL    HW1 4987   3.532   5.029   1.798  0.5823 -0.7061 -1.4677
 1465SOL    HW2 4988   3.584   5.116   1.686 -0.1672  1.7776  0.0407
 1466SOL     OW 4989   3.866   1.964   3.500 -0.6069 -0.2822  0.0707
 1466SOL    HW1 4990   3.845   1.987   3.591  0.0364  1.9650 -0.2846
 1466SOL    HW2 4991   3.931   1.894   3.507 -0.3824  0.0354  1.3435
 1467SOL     OW 4992   3.877   0.345   0.188 -0.2060  0.3055 -0.1922
 1467SOL    HW1 4993   3.823   0.409   0.234 -1.3498 -1.0236  0.3970
 1467SOL    HW2 4994   3.919   0.294   0.257  1.3641  0.9304 -0.6493
 1468SOL     OW 4995   3.516   0.103   2.844  0.0324 -0.0556 -0.4652
 1468SOL    HW1 4996   3.523   0.156   2.923 -1.4977  0.9232 -0.9283
 1468SOL    HW2 4997   3.475   0.161   2.779  0.5993 -1.0407 -1.7670
 1469SOL     OW 4998   2.438   2.221   2.416  0.2354 -0.1347  0.6433
 1469SOL    HW1 4999   2.512   2.275   2.389  1.1939 -1.1449  1.1150
 1469SOL    HW2 5000   2.448   2.214   2.511 -0.8587  0.2543  0.7912
 1470SOL     OW 5001   2.932   0.668   2.715  0.0977  0.0681  0.0919
 1470SOL    HW1 5002   2.904   0.639   2.802  0.0929  1.1887  0.4730
 1470SOL    HW2 5003   2.865   0.634   2.656 -0.5200  0.2625  0.6639
 1471SOL     OW 5004   2.280   0.536   3.148  0.2859  0.1921  0.2237
 1471SOL    HW1 5005   2.194   0.550   3.187  0.3176  1.0364  0.0155
 1471SOL    HW2 5006   2.317   0.624   3.140  0.7878 -0.0806 -0.5512
 1472SOL     OW 5007   4.246   0.327   0.346  0.5395 -0.7832  0.5307
 1472SOL    HW1 5008   4.218   0.295   0.260 -3.1276  0.6929  0.9784
 1472SOL    HW2 5009   4.206   0.267   0.408  0.2267  0.1019  1.2095
 1473SOL     OW 5010   0.712   0.579   0.272  0.5024  0.3784 -0.3140
 1473SOL    HW1 5011   0.791   0.536   0.307 -0.3274  0.4544  1.7656
 1473SOL    HW2 5012   0.671   0.512   0.218  0.3401 -0.8061  1.1913
 1474SOL     OW 5013   0.510   3.312   2.848  0.6879  0.3242  0.1520
 1474SOL    HW1 5014   0.461   3.376   2.899 -2.0657 -0.3880 -1.4028
 1474SOL    HW2 5015   0.535   3.359   2.768  1.6176  0.3513  0.4412
 1475SOL     OW 5016   1.875   3.915   2.247  0.1515 -0.5319  0.4586
 1475SOL    HW1 5017   1.844   3.915   2.157 -0.7177 -1.6315  0.7338
 1475SOL    HW2 5018   1.948   3.978   2.248 -0.5858  0.3705 -0.7267
 1476SOL     OW 5019   3.610   2.536   2.398  0.1413  0.6464  0.3550
 1476SOL    HW1 5020   3.606   2.570   2.309 -0.1923 -0.9944 -0.2779
 1476SOL    HW2 5021   3.534   2.575   2.442 -1.0380 -0.3540 -0.7442
 1477SOL     OW 5022   3.026   5.315   1.972  0.0781  0.4709  0.0284
 1477SOL    HW1 5023   3.075   5.262   2.035 -0.3461 -0.4865 -0.4147
 1477SOL    HW2 5024   3.071   5.399   1.970  0.6195  0.2170  0.9502
 1478SOL     OW 5025   2.326   4.786   1.355  0.4300 -0.9921 -0.1843
 1478SOL    HW1 5026   2.362   4.820   1.436 -0.0461 -0.1675 -0.3135
 1478SOL    HW2 5027   2.348   4.851   1.289 -1.2177 -0.4915 -0.2744
 1479SOL     OW 5028   4.487  -0.004   2.118  0.2248 -0.2128 -0.3568
 1479SOL    HW1 5029   4.415  -0.061   2.144 -1.8076  0.9617 -2.9175
 1479SOL    HW2 5030   4.464   0.082   2.154 -1.1070  0.7397 -3.1605
 1480SOL     OW 5031   2.411   2.541   2.887 -0.3825  0.4988 -0.1707
 1480SOL    HW1 5032   2.394   2.472   2.823  1.7912  1.3604 -1.8223
 1480SOL    HW2 5033   2.386   2.622   2.843  0.2051  1.0404  0.4604
 1481SOL     OW 5034   1.616   1.732   0.546 -0.0275  0.2195 -0.0978
 1481SOL    HW1 5035   1.584   1.821   0.559  0.7956  0.8419 -1.9076
 1481SOL    HW2 5036   1.606   1.717   0.452  3.0964 -0.2291 -0.4738
 1482SOL     OW 5037   3.040   2.131   3.227  0.4467  0.4692 -0.6843
 1482SOL    HW1 5038   3.108   2.066   3.243  0.4333  0.1817 -1.6770
 1482SOL    HW2 5039   2.959   2.089   3.257  0.8050  1.2137  1.4667
 1483SOL     OW 5040   1.714   0.010   0.668  0.2370 -0.0980  0.1825
 1483SOL    HW1 5041   1.684   0.090   0.625  1.0171  0.8689  1.3392
 1483SOL    HW2 5042   1.711   0.031   0.762  0.4006 -1.4505  0.5103
 1484SOL     OW 5043   1.943   0.826   2.088  0.4269  0.4162  0.0288
 1484SOL    HW1 5044   1.935   0.783   2.173  1.1818 -1.2720 -0.7065
 1484SOL    HW2 5045   1.932   0.755   2.024  0.5628  1.5206 -1.2643
 1485SOL     OW 5046   2.332   2.299   3.094 -0.5964  0.3642  0.0134
 1485SOL    HW1 5047   2.383   2.337   3.166  1.5912 -0.7646 -0.8302
 1485SOL    HW2 5048   2.360   2.348   3.016 -0.1847 -0.7505 -0.5766
 1486SOL     OW 5049   3.330   0.085   2.327  0.4882  0.0967 -0.7704
 1486SOL    HW1 5050   3.383   0.012   2.294  1.5705  1.6706 -2.7273
 1486SOL    HW2 5051   3.315   0.064   2.419  2.5798 -1.5462 -0.7303
 1487SOL     OW 5052   3.780   1.181   2.807  0.1264  0.0231  0.6279
 1487SOL    HW1 5053   3.843   1.145   2.745 -0.7712  0.5062 -0.5860
 1487SOL    HW2 5054   3.793   1.275   2.803  0.4401  0.0366  1.6120
 1488SOL     OW 5055   3.239   2.040   0.309 -0.5235 -0.2471  0.1899
 1488SOL    HW1 5056   3.330   2.026   0.283 -0.7928 -0.2061 -0.8018
 1488SOL    HW2 5057   3.187   2.014   0.232 -1.3862 -0.9185  0.9739
 1489SOL     OW 5058   1.799   3.359   1.981 -0.1338  0.6743  0.4901
 1489SOL    HW1 5059   1.770   3.299   2.050 -0.2211 -1.8143 -1.5760
 1489SOL    HW2 5060   1.882   3.323   1.951 -0.5050  1.1929 -1.2611
 1490SOL     OW 5061   3.331   4.665   2.624  0.7562 -0.0087 -0.1350
 1490SOL    HW1 5062   3.243   4.628   2.615 -0.6294  2.4828  1.5869
 1490SOL    HW2 5063   3.343   4.716   2.544  0.6137 -0.3732 -0.3882
 1491SOL     OW 5064   3.866   0.124   2.452 -0.0928  0.2502  0.2934
 1491SOL    HW1 5065   3.782   0.138   2.410  0.5514  2.2232 -0.4223
 1491SOL    HW2 5066   3.871   0.190   2.521  1.0172  0.3878  0.0982
 1492SOL     OW 5067   3.089   1.989   2.659 -0.5335 -0.0595 -0.2901
 1492SOL    HW1 5068   3.168   1.942   2.632 -0.8487 -0.6305 -0.2290
 1492SOL    HW2 5069   3.059   1.942   2.737 -0.7135  0.3965 -0.0790
 1493SOL     OW 5070   1.659   0.944   1.399 -0.0316  0.8953 -0.1442
 1493SOL    HW1 5071   1.678   1.017   1.459 -1.7146  1.0281  0.2937
 1493SOL    HW2 5072   1.693   0.973   1.315 -0.0924  1.9254  0.1645
 1494SOL     OW 5073   0.390   3.729   0.197 -0.3501  0.0089 -0.5384
 1494SOL    HW1 5074   0.352   3.670   0.132 -2.0829  2.0055 -1.4467
 1494SOL    HW2 5075   0.328   3.725   0.271 -0.1225  0.2053 -0.3361
 1495SOL     OW 5076   3.438   2.034   3.437 -0.0468 -0.3794  0.2639
 1495SOL    HW1 5077   3.469   2.101   3.376 -1.0166 -0.2878 -0.1403
 1495SOL    HW2 5078   3.452   2.072   3.524  1.8086 -0.7082  0.1530
 1496SOL     OW 5079   5.767   1.495   2.685  0.3196  0.0799 -0.1209
 1496SOL    HW1 5080   5.757   1.564   2.620 -0.9787 -0.1868 -0.2322
 1496SOL    HW2 5081   5.770   1.414   2.635 -2.7042 -0.3230  0.1351
 1497SOL     OW 5082   2.738   4.480   2.024 -0.4917  0.0810  0.8511
 1497SOL    HW1 5083   2.787   4.542   1.971 -2.5590  0.6989 -0.4633
 1497SOL    HW2 5084   2.729   4.403   1.969 -0.7225 -0.1402  1.1973
 1498SOL     OW 5085   3.040   1.984   2.351  0.2071  0.1425 -0.3497
 1498SOL    HW1 5086   3.109   2.019   2.295  1.1420 -1.3879 -0.2176
 1498SOL    HW2 5087   3.075   1.994   2.440  0.6151 -1.2712 -0.3202
 1499SOL     OW 5088   1.579   2.052   3.419  0.4676 -0.8737 -0.2857
 1499SOL    HW1 5089   1.648   2.111   3.451 -0.9824  0.5781  0.3704
 1499SOL    HW2 5090   1.584   2.058   3.324  0.8274 -0.2425 -0.2343
 1500SOL     OW 5091   3.984   1.019   3.023 -0.4054 -0.1736  0.1189
 1500SOL    HW1 5092   4.029   0.949   2.976 -1.5595 -2.2868  2.0002
 1500SOL    HW2 5093   3.892   1.010   3.000 -0.3864  2.0766 -1.1756
 1501SOL     OW 5094   2.742   1.159   2.171  0.2314 -0.2599  0.1415
 1501SOL    HW1 5095   2.810   1.156   2.104  1.3064  0.7269  1.1368
 1501SOL    HW2 5096   2.710   1.069   2.177  1.1537 -0.6610 -0.6311
 1502SOL     OW 5097   0.574   2.694   3.401 -0.1317 -0.0573 -0.5256
 1502SOL    HW1 5098   0.499   2.710   3.457  0.8386 -0.3051  0.9036
 1502SOL    HW2 5099   0.631   2.770   3.414  1.3863 -1.3823  1.0495
 1503SOL     OW 5100   3.454   0.805   1.870 -0.4932 -0.1345  0.3748
 1503SOL    HW1 5101   3.414   0.858   1.801  1.3606  0.4011 -0.3499
 1503SOL    HW2 5102   3.475   0.868   1.939  0.2403 -0.1737  0.1983
 1504SOL     OW 5103   1.734   1.699   2.540  0.2865  0.2781 -0.5484
 1504SOL    HW1 5104   1.733   1.610   2.505 -0.2238 -0.4325  1.1489
 1504SOL    HW2 5105   1.795   1.747   2.483 -0.8200 -0.6470 -2.6172
 1505SOL     OW 5106   3.117   0.754   1.849  0.2424 -0.6575  0.6901
 1505SOL    HW1 5107   3.083   0.775   1.936  0.1921 -0.5436  0.6440
 1505SOL    HW2 5108   3.041   0.722   1.801  0.5509 -2.0860  1.1142
 1506SOL     OW 5109   2.598   2.876   1.510  0.2109  0.2249 -0.1550
 1506SOL    HW1 5110   2.687   2.875   1.475  0.8025  0.5907  1.2504
 1506SOL    HW2 5111   2.584   2.967   1.536 -0.8213  0.2999 -0.9307
 1507SOL     OW 5112   3.017   4.751   3.454  0.6780 -0.3700 -0.0374
 1507SOL    HW1 5113   2.963   4.746   3.533  0.4158 -2.3227 -0.3068
 1507SOL    HW2 5114   3.106   4.763   3.486  0.3098  1.2602  0.4561
 1508SOL     OW 5115   1.914   2.747   2.205 -0.5874  0.2960 -0.6122
 1508SOL    HW1 5116   1.996   2.704   2.182 -0.8702 -1.0775  0.7736
 1508SOL    HW2 5117   1.933   2.795   2.286 -1.2208 -0.3358 -0.0764
 1509SOL     OW 5118   0.921   4.223   3.045  0.1007 -0.4685 -0.0501
 1509SOL    HW1 5119   0.893   4.133   3.064 -0.0299 -0.2755  0.6854
 1509SOL    HW2 5120   1.010   4.213   3.009  0.4546 -0.8336  0.8943
 1510SOL     OW 5121   2.548   3.810   0.412  0.3837 -0.0009  0.7268
 1510SOL    HW1 5122   2.612   3.881   0.410 -0.7194  1.0431  1.4671
 1510SOL    HW2 5123   2.497   3.821   0.332 -1.3135  1.5555  1.9296
 1511SOL     OW 5124   2.043   0.508   3.309  0.2481  0.7247  0.1024
 1511SOL    HW1 5125   1.982   0.435   3.313 -0.0988  0.6712 -3.3912
 1511SOL    HW2 5126   2.109   0.488   3.376 -0.9794 -1.6452  0.7070
 1512SOL     OW 5127   3.784   1.075   0.574 -0.4061  0.1137 -0.4457
 1512SOL    HW1 5128   3.873   1.044   0.590 -0.5208 -0.3824 -0.7368
 1512SOL    HW2 5129   3.790   1.171   0.581 -0.2771  0.0102  1.6656
 1513SOL     OW 5130   2.433   0.588   2.026  0.3933 -0.4672 -0.1854
 1513SOL    HW1 5131   2.443   0.495   2.045 -0.7084 -0.4899  0.4325
 1513SOL    HW2 5132   2.417   0.628   2.112  2.7143  0.6040 -0.1793
 1514SOL     OW 5133   2.144   3.666   2.050  0.1537  0.0864  0.5971
 1514SOL    HW1 5134   2.238   3.673   2.032  0.3075 -2.0404  0.2142
 1514SOL    HW2 5135   2.112   3.605   1.982 -1.2629 -0.1433  1.4336
 1515SOL     OW 5136   2.191   2.724   2.594  0.0329 -0.1254 -0.1404
 1515SOL    HW1 5137   2.201   2.808   2.548  1.6742  0.0553  0.4832
 1515SOL    HW2 5138   2.154   2.665   2.528 -0.0340  0.7824 -0.9359
 1516SOL     OW 5139   2.941   1.035   2.453  0.3621  0.8624 -0.2040
 1516SOL    HW1 5140   2.949   1.007   2.362  0.7807  1.7850 -0.4617
 1516SOL    HW2 5141   3.026   1.075   2.474  0.8138 -0.6536  1.0645
 1517SOL     OW 5142   2.021   0.403   1.226  0.0756 -0.3669 -0.3880
 1517SOL    HW1 5143   2.053   0.411   1.316 -1.0656  0.6522 -0.0535
 1517SOL    HW2 5144   2.029   0.491   1.189 -0.1313 -0.6251 -1.0622
 1518SOL     OW 5145   2.086   1.978   2.492  0.1433  0.7358 -0.4361
 1518SOL    HW1 5146   2.099   2.060   2.444  0.1156  0.8344 -0.2767
 1518SOL    HW2 5147   2.149   1.982   2.564  1.2882 -0.1235 -1.3537
 1519SOL     OW 5148   2.323   0.267   3.145 -0.2236 -0.0835  0.1072
 1519SOL    HW1 5149   2.261   0.245   3.214  1.2844  0.3588  1.6584
 1519SOL    HW2 5150   2.311   0.362   3.131  0.6411  0.1591  0.9744
 1520SOL     OW 5151   3.293   1.075   0.458  0.3313 -0.1049  0.4350
 1520SOL    HW1 5152   3.357   1.118   0.401 -2.2319  2.6441 -0.6688
 1520SOL    HW2 5153   3.262   1.001   0.406  0.5038  0.3154 -0.2847
 1521SOL     OW 5154   2.258   0.538   2.461 -0.6250  0.1883  0.5316
 1521SOL    HW1 5155   2.239   0.536   2.555  3.0459 -0.3586  1.4492
 1521SOL    HW2 5156   2.289   0.450   2.441 -0.9570  0.4100 -1.1165
 1522SOL     OW 5157   4.219   4.374   0.625 -0.2162 -0.2575  0.0849
 1522SOL    HW1 5158   4.294   4.389   0.569  2.1870  2.8374  3.6172
 1522SOL    HW2 5159   4.228   4.283   0.654  1.6132 -0.2549 -0.3583
 1523SOL     OW 5160   2.635   5.186   1.733  0.6435  0.0808 -0.4653
 1523SOL    HW1 5161   2.643   5.247   1.660 -0.2803  0.2841 -0.4059
 1523SOL    HW2 5162   2.725   5.169   1.760  0.9049  1.7513 -0.2038
 1524SOL     OW 5163   0.646   2.245   3.049  0.3294  0.1924  0.3808
 1524SOL    HW1 5164   0.698   2.178   3.095 -1.5683 -0.8395  1.1392
 1524SOL    HW2 5165   0.653   2.222   2.957  2.7265  1.2271  0.2151
 1525SOL     OW 5166   4.262   5.335   3.263 -0.6148  0.3949 -0.0096
 1525SOL    HW1 5167   4.224   5.377   3.186  0.6864 -0.5993 -1.2528
 1525SOL    HW2 5168   4.323   5.401   3.298 -2.8407  1.7285  1.5910
 1526SOL     OW 5169   4.611   1.418   2.042  0.5848  0.2818  0.0711
 1526SOL    HW1 5170   4.529   1.374   2.066  1.3201 -1.1057  0.1006
 1526SOL    HW2 5171   4.665   1.414   2.121  0.7741  1.0091 -0.0118
 1527SOL     OW 5172   2.049   1.460   2.651 -1.1406  0.1774 -0.0785
 1527SOL    HW1 5173   2.083   1.469   2.562  1.0431  2.6419  0.8665
 1527SOL    HW2 5174   2.023   1.549   2.676 -3.3120 -0.7451  1.1968
 1528SOL     OW 5175   3.386   1.231   3.421 -0.4906  0.1478  0.0772
 1528SOL    HW1 5176   3.385   1.262   3.330 -0.6560  0.2016  0.0968
 1528SOL    HW2 5177   3.477   1.208   3.437 -0.0671  1.9978  0.5353
 1529SOL     OW 5178   1.105   4.418   3.316  0.3049 -0.2276  0.0204
 1529SOL    HW1 5179   1.052   4.343   3.342 -0.9600  0.4175 -0.5842
 1529SOL    HW2 5180   1.103   4.417   3.220 -0.3882  0.9949 -0.0011
 1530SOL     OW 5181   3.092   1.338   0.823 -0.5257  0.1405  0.3836
 1530SOL    HW1 5182   3.003   1.353   0.854  0.2445  3.7914  1.1934
 1530SOL    HW2 5183   3.081   1.319   0.729 -2.1058  2.2442  0.0696
 1531SOL     OW 5184   1.574   0.902   2.727  0.1072  0.9447  0.0756
 1531SOL    HW1 5185   1.526   0.902   2.644 -1.4451 -1.4871  0.8582
 1531SOL    HW2 5186   1.520   0.953   2.787  0.9308  2.1970 -0.2111
 1532SOL     OW 5187   3.946   0.161   0.370  0.9527 -0.0417  0.1378
 1532SOL    HW1 5188   3.861   0.118   0.374 -0.6481  2.8444 -0.1778
 1532SOL    HW2 5189   4.004   0.104   0.420 -1.1519 -2.1070  0.3935
 1533SOL     OW 5190   2.949   0.213   0.678  0.5638  0.2213  0.4292
 1533SOL    HW1 5191   2.970   0.146   0.743  0.9629  1.0620  1.1952
 1533SOL    HW2 5192   3.005   0.192   0.603  1.5564  0.3616  1.1064
 1534SOL     OW 5193   3.786   0.181   1.558  0.1477  0.4509 -0.2044
 1534SOL    HW1 5194   3.809   0.271   1.580  1.6597  0.1838 -0.6045
 1534SOL    HW2 5195   3.707   0.163   1.609 -0.6628  2.2603 -0.7521
 1535SOL     OW 5196   3.734   5.372   0.733 -0.2266  0.4619 -0.5102
 1535SOL    HW1 5197   3.724   5.357   0.639  0.9376  1.5504 -0.8394
 1535SOL    HW2 5198   3.813   5.425   0.741  0.1426 -0.2577  1.1580
 1536SOL     OW 5199   1.352   0.962   2.943  0.0472  0.6461 -0.0988
 1536SOL    HW1 5200   1.287   1.002   3.000 -0.3245 -0.5425  0.3455
 1536SOL    HW2 5201   1.301   0.911   2.880  0.5117  0.5301 -0.3878
 1537SOL     OW 5202   2.205   2.644   1.701  0.3787 -0.2452 -0.2987
 1537SOL    HW1 5203   2.273   2.709   1.720  1.3275 -1.5732  1.1063
 1537SOL    HW2 5204   2.240   2.562   1.736 -1.0392 -1.4163 -1.4882
 1538SOL     OW 5205   1.642   0.668   1.304  0.0637  0.1527  0.7195
 1538SOL    HW1 5206   1.722   0.632   1.342  2.1993  3.2090 -0.5290
 1538SOL    HW2 5207   1.636   0.757   1.338 -2.3148  0.3401  0.0080
 1539SOL     OW 5208   2.890   4.287   2.776 -0.2701  0.1900 -0.6349
 1539SOL    HW1 5209   2.825   4.221   2.796  1.8125 -1.7692  0.1543
 1539SOL    HW2 5210   2.931   4.256   2.695 -0.0374  1.1620 -0.9004
 1540SOL     OW 5211   2.467   1.313   0.704  0.5758 -0.1882 -0.1846
 1540SOL    HW1 5212   2.524   1.352   0.771  1.3027  0.1675 -0.9924
 1540SOL    HW2 5213   2.525   1.256   0.654 -0.1978 -1.2817  0.1485
 1541SOL     OW 5214   3.714   5.382   1.174  0.1100  0.1046 -0.7581
 1541SOL    HW1 5215   3.805   5.355   1.162  0.2322  0.6412 -1.0370
 1541SOL    HW2 5216   3.692   5.429   1.094 -0.3126  0.2627 -0.5507
 1542SOL     OW 5217   2.200   0.330   0.660  0.0376 -0.1513 -0.1004
 1542SOL    HW1 5218   2.123   0.275   0.672  0.0311  0.1072  1.1756
 1542SOL    HW2 5219   2.181   0.382   0.582 -0.7502 -0.6279 -0.2296
 1543SOL     OW 5220   3.413   0.992   0.080  0.0574 -0.2855  0.7213
 1543SOL    HW1 5221   3.410   1.040   0.162  0.5526 -0.3357  0.7729
 1543SOL    HW2 5222   3.414   1.059   0.012 -0.8424 -0.2480  0.7292
 1544SOL     OW 5223   2.790   2.722   3.053  0.3195 -0.5060  0.1403
 1544SOL    HW1 5224   2.773   2.812   3.027  0.1819 -0.5882 -0.0580
 1544SOL    HW2 5225   2.885   2.717   3.061  0.2296  0.3206  2.5669
 1545SOL     OW 5226   1.479   2.887   3.475 -0.2603 -0.0498 -0.5811
 1545SOL    HW1 5227   1.484   2.792   3.472  0.7119  0.0151 -1.5472
 1545SOL    HW2 5228   1.491   2.909   3.567 -1.7054 -0.8978 -0.1579
 1546SOL     OW 5229   2.648   1.120   1.365 -0.1154 -0.0766  0.1062
 1546SOL    HW1 5230   2.612   1.144   1.280  1.0176 -0.0318 -0.3708
 1546SOL    HW2 5231   2.617   1.188   1.424  1.4493  1.5605 -0.8463
 1547SOL     OW 5232   5.260   3.403   0.912  0.2878 -0.6141 -0.3047
 1547SOL    HW1 5233   5.224   3.449   0.836  1.7549  1.7937  0.3375
 1547SOL    HW2 5234   5.330   3.461   0.944 -0.2944 -1.4871  2.9026
 1548SOL     OW 5235   1.071   2.750   1.382 -0.0757  0.4136 -0.3531
 1548SOL    HW1 5236   1.038   2.804   1.310  0.4953  0.9504 -0.2147
 1548SOL    HW2 5237   1.080   2.662   1.343  0.2181  0.6939 -0.9374
 1549SOL     OW 5238   3.369   1.076   1.719 -0.3967 -0.2237 -0.2470
 1549SOL    HW1 5239   3.399   1.103   1.632  0.3237  0.9041  0.3149
 1549SOL    HW2 5240   3.280   1.111   1.725  0.1085  1.0945  0.0288
 1550SOL     OW 5241   2.701   3.383   2.020  0.4017 -0.0041 -0.0178
 1550SOL    HW1 5242   2.775   3.440   2.042  1.9996 -1.8928 -0.1371
 1550SOL    HW2 5243   2.670   3.413   1.935  0.0576  1.7311  0.6908
 1551SOL     OW 5244   3.735   2.110   0.661  0.4788 -0.2759  0.3590
 1551SOL    HW1 5245   3.722   2.198   0.625  0.2310  0.0083  1.1196
 1551SOL    HW2 5246   3.790   2.124   0.739  1.7235 -0.9673 -0.3603
 1552SOL     OW 5247   3.149   2.134   1.528 -0.0313 -0.0871 -0.0311
 1552SOL    HW1 5248   3.236   2.134   1.488  0.0944  1.0284  0.2029
 1552SOL    HW2 5249   3.089   2.139   1.454 -0.0028 -2.5685 -0.3020
 1553SOL     OW 5250   4.881   3.028   0.836 -0.2699 -0.5489 -0.0209
 1553SOL    HW1 5251   4.907   2.938   0.818 -1.5708 -0.7138 -1.2258
 1553SOL    HW2 5252   4.963   3.077   0.840  0.4634 -1.7976  0.8433
 1554SOL     OW 5253   2.760   3.998   0.414 -0.2323  0.2516  0.3974
 1554SOL    HW1 5254   2.848   3.979   0.445 -0.0951  0.9044  0.4068
 1554SOL    HW2 5255   2.750   4.092   0.425 -0.4039  0.4077 -0.9703
 1555SOL     OW 5256   2.786   4.111   1.488 -0.3315  0.2812  0.5883
 1555SOL    HW1 5257   2.751   4.079   1.405  1.0950  3.9262 -1.6538
 1555SOL    HW2 5258   2.709   4.127   1.542 -1.4347 -0.3057 -0.7594
 1556SOL     OW 5259   2.760   2.967   2.907 -0.1640 -0.5199  0.9515
 1556SOL    HW1 5260   2.726   3.029   2.973  0.2402  0.3202  0.3933
 1556SOL    HW2 5261   2.695   2.971   2.836  0.1734 -0.2706  0.6550
 1557SOL     OW 5262   3.348   0.353   0.680  0.1925 -0.3706  0.5829
 1557SOL    HW1 5263   3.310   0.434   0.713 -0.5764 -1.3353  2.1888
 1557SOL    HW2 5264   3.382   0.376   0.593  1.2921  2.0301  1.5486
 1558SOL     OW 5265   2.188   2.925   2.039  0.4732 -0.4238 -0.1942
 1558SOL    HW1 5266   2.253   2.855   2.027 -0.0428 -0.8434 -0.5669
 1558SOL    HW2 5267   2.145   2.933   1.953  0.9926  0.8307 -0.3729
 1559SOL     OW 5268   3.170   1.399   0.026  0.2308 -0.2517  0.3262
 1559SOL    HW1 5269   3.249   1.345   0.013 -0.7045 -1.3707 -0.9349
 1559SOL    HW2 5270   3.189   1.450   0.105  1.9198 -1.0363  0.4697
 1560SOL     OW 5271   0.936   2.596   2.250  0.3141 -0.3751  0.0684
 1560SOL    HW1 5272   0.915   2.580   2.342 -1.1850 -1.9535 -0.4835
 1560SOL    HW2 5273   1.016   2.648   2.252  0.8955 -1.2381  2.2540
 1561SOL     OW 5274   3.875   3.037   0.771  0.4427 -0.4016  0.1869
 1561SOL    HW1 5275   3.880   3.131   0.753 -0.4531 -0.4932 -0.6058
 1561SOL    HW2 5276   3.944   3.022   0.835  0.7211  0.7654  0.1932
 1562SOL     OW 5277   2.295   4.151   0.860  0.0732  0.2294  0.1300
 1562SOL    HW1 5278   2.209   4.108   0.859  0.7446 -1.2941 -2.8200
 1562SOL    HW2 5279   2.277   4.239   0.894 -2.1136 -0.9203  2.2410
 1563SOL     OW 5280   2.957   3.889   0.144  0.0549 -0.0548  0.8840
 1563SOL    HW1 5281   2.886   3.952   0.132 -1.4820 -1.6181  1.3786
 1563SOL    HW2 5282   2.929   3.812   0.094  1.4195 -0.7093  1.0803
 1564SOL     OW 5283   1.965   3.133   3.458  0.1657  0.2179  0.1518
 1564SOL    HW1 5284   2.011   3.122   3.542  1.0885  0.5383 -0.3016
 1564SOL    HW2 5285   1.873   3.145   3.483  0.4918  0.7971  1.1502
 1565SOL     OW 5286   0.696   2.641   1.942 -0.0793  0.2231  0.1956
 1565SOL    HW1 5287   0.676   2.595   2.023 -0.4404  1.6546  0.9476
 1565SOL    HW2 5288   0.675   2.578   1.873  1.5133 -1.5229  1.1979
 1566SOL     OW 5289   4.050   5.135   1.517 -0.2077 -0.5362 -0.0867
 1566SOL    HW1 5290   4.044   5.209   1.457  0.6114 -1.7273 -1.7360
 1566SOL    HW2 5291   4.016   5.061   1.466 -0.0645 -1.4953  1.1513
 1567SOL     OW 5292   3.712   2.625   1.527  0.0954  0.2707 -0.0726
 1567SOL    HW1 5293   3.786   2.570   1.498  0.2789  0.8203 -0.6789
 1567SOL    HW2 5294   3.651   2.624   1.453 -1.4391 -1.7293  1.1266
 1568SOL     OW 5295   3.365   2.566   3.511  0.4802 -0.3872  0.0000
 1568SOL    HW1 5296   3.399   2.505   3.576  1.5514  1.6439  1.4633
 1568SOL    HW2 5297   3.442   2.614   3.481 -0.3530  0.4011 -0.9527
 1569SOL     OW 5298   1.728   2.467   0.900 -0.1071 -0.5203  0.1875
 1569SOL    HW1 5299   1.669   2.395   0.875 -0.6161  0.2073 -0.7446
 1569SOL    HW2 5300   1.674   2.523   0.956 -0.6025  0.5844 -1.3315
 1570SOL     OW 5301   2.734   1.915   2.271 -0.2878 -0.7172  0.1268
 1570SOL    HW1 5302   2.824   1.939   2.292 -0.3646  0.2737 -0.5933
 1570SOL    HW2 5303   2.687   1.999   2.268 -1.8049 -1.3473  2.8911
 1571SOL     OW 5304   2.460   2.539   2.521  0.0158 -0.2467 -0.1634
 1571SOL    HW1 5305   2.388   2.528   2.583 -0.3443  2.0692 -0.0802
 1571SOL    HW2 5306   2.525   2.474   2.549 -0.4851  0.1294  2.1128
 1572SOL     OW 5307   4.413   1.973   0.841  0.2918 -0.6967  0.2562
 1572SOL    HW1 5308   4.493   2.020   0.863  0.8121 -0.8697 -1.1504
 1572SOL    HW2 5309   4.367   2.032   0.781  0.2681 -1.3555 -0.3967
 1573SOL     OW 5310   2.999   0.271   1.052  0.3158  0.0570 -0.0516
 1573SOL    HW1 5311   3.078   0.228   1.019  0.0288  0.8090 -1.8169
 1573SOL    HW2 5312   2.927   0.214   1.025 -0.0736  1.5585 -2.4698
 1574SOL     OW 5313   0.257   4.626   3.091 -0.7217  0.7600 -0.3238
 1574SOL    HW1 5314   0.201   4.549   3.099  0.5589 -0.1735 -0.0784
 1574SOL    HW2 5315   0.203   4.690   3.044 -1.2603 -0.8339 -1.9831
 1575SOL     OW 5316   3.445   2.402   0.512  0.0877 -0.2915 -0.0333
 1575SOL    HW1 5317   3.528   2.374   0.549  0.5429  0.2292 -0.6328
 1575SOL    HW2 5318   3.382   2.335   0.538  0.1057  0.6438  2.7224
 1576SOL     OW 5319   3.694   5.428   0.430 -0.3301  0.1874  0.0707
 1576SOL    HW1 5320   3.615   5.465   0.469 -0.4995  0.7567 -0.7818
 1576SOL    HW2 5321   3.687   5.448   0.337  1.0705  0.7314  0.0419
 1577SOL     OW 5322   2.368   2.905   1.737  0.6544 -0.1803  0.5006
 1577SOL    HW1 5323   2.382   3.000   1.741  0.6415 -0.1529 -0.1269
 1577SOL    HW2 5324   2.438   2.873   1.681  1.0316 -0.6242  1.2026
 1578SOL     OW 5325   2.387   2.763   2.757 -0.7333  0.3936  0.3599
 1578SOL    HW1 5326   2.336   2.820   2.816 -0.2018  1.8801 -0.5766
 1578SOL    HW2 5327   2.328   2.746   2.683 -1.4139 -1.5053  1.2467
 1579SOL     OW 5328   3.769   3.743   0.795  0.2477  0.6832 -0.2859
 1579SOL    HW1 5329   3.694   3.714   0.744 -0.3593 -1.2234  1.5444
 1579SOL    HW2 5330   3.740   3.823   0.839 -1.1809 -0.6426  1.2889
 1580SOL     OW 5331   2.154   2.541   0.063  0.5432  0.2176 -0.3858
 1580SOL    HW1 5332   2.248   2.539   0.082  0.1038  1.6480  2.3370
 1580SOL    HW2 5333   2.133   2.634   0.055 -1.1719  0.1970  2.5489
 1581SOL     OW 5334   0.084   5.226   0.973  0.1015  0.9991 -0.3795
 1581SOL    HW1 5335   0.067   5.144   1.018  2.0338 -0.1948 -1.6754
 1581SOL    HW2 5336   0.095   5.290   1.043  0.4845 -0.2582  0.7495
 1582SOL     OW 5337   0.575   3.447   2.626 -0.2301 -0.5371 -0.0067
 1582SOL    HW1 5338   0.621   3.504   2.565  0.7090 -1.1265  0.1367
 1582SOL    HW2 5339   0.521   3.391   2.570 -0.6799  0.0690 -0.1824
 1583SOL     OW 5340   1.502   3.284   2.640  0.0508  0.1354  0.5707
 1583SOL    HW1 5341   1.467   3.356   2.691  1.8084  2.2114 -0.9760
 1583SOL    HW2 5342   1.481   3.305   2.549  0.2291 -1.5466  0.0910
 1584SOL     OW 5343   4.251   1.961   0.214  0.5612  0.0871  0.2348
 1584SOL    HW1 5344   4.247   1.924   0.126  1.3358  0.3067  0.1028
 1584SOL    HW2 5345   4.218   1.891   0.271 -0.4261  0.1235 -0.2645
 1585SOL     OW 5346   2.142   1.969   0.403  0.7893 -0.2573  0.6510
 1585SOL    HW1 5347   2.088   2.027   0.458 -0.8390 -0.4714 -0.6223
 1585SOL    HW2 5348   2.155   1.891   0.457  0.0323 -0.0918  1.1044
 1586SOL     OW 5349   4.756   2.967   0.458 -0.5929 -0.1058  0.0444
 1586SOL    HW1 5350   4.705   2.931   0.530 -0.8660  1.1189  0.4889
 1586SOL    HW2 5351   4.697   3.031   0.417  0.2983  0.7725  0.0937
 1587SOL     OW 5352   1.412   4.507   1.298  0.0446  0.4293  0.0762
 1587SOL    HW1 5353   1.381   4.475   1.213  2.1134  0.4184 -0.7335
 1587SOL    HW2 5354   1.506   4.518   1.286  0.0871  2.4644  1.7281
 1588SOL     OW 5355   3.559   3.206   0.074  0.3625 -0.1422 -0.1089
 1588SOL    HW1 5356   3.561   3.295   0.040 -1.0941  1.1168  2.7577
 1588SOL    HW2 5357   3.486   3.164   0.028 -0.9248  1.1745  0.6637
 1589SOL     OW 5358   2.166   3.173   2.205  0.4723 -0.0849 -0.0803
 1589SOL    HW1 5359   2.247   3.200   2.162  0.1859 -0.0644 -0.6075
 1589SOL    HW2 5360   2.150   3.084   2.171 -0.5378  0.4855 -1.1531
 1590SOL     OW 5361   3.962   3.461   0.527  0.7728 -0.1208  0.6576
 1590SOL    HW1 5362   4.037   3.491   0.476  0.3486 -0.3485 -0.1108
 1590SOL    HW2 5363   3.886   3.477   0.471  0.2299  0.2042  1.4685
 1591SOL     OW 5364   2.211   2.257   0.156  0.5407  0.1952  0.7256
 1591SOL    HW1 5365   2.147   2.309   0.204 -1.5735 -2.7379  1.3996
 1591SOL    HW2 5366   2.226   2.305   0.075 -2.3607  1.2082  0.6680
 1592SOL     OW 5367   2.025   2.830   2.914 -0.4840 -0.5690  0.0162
 1592SOL    HW1 5368   2.035   2.741   2.881 -2.1430 -0.2344 -1.5368
 1592SOL    HW2 5369   2.114   2.866   2.912 -0.3062 -0.9342 -3.2063
 1593SOL     OW 5370   3.615   2.723   3.130 -0.3748  0.1200  0.2242
 1593SOL    HW1 5371   3.638   2.762   3.046 -2.1388  1.4404  0.3021
 1593SOL    HW2 5372   3.645   2.786   3.195  1.5531 -1.1832  0.6787
 1594SOL     OW 5373   2.380   2.190   1.960  0.3471  0.1857 -0.1880
 1594SOL    HW1 5374   2.435   2.259   1.998 -1.2737  1.5690 -0.2326
 1594SOL    HW2 5375   2.439   2.142   1.902  1.6533  1.2088  0.2278
 1595SOL     OW 5376   1.966   2.391   0.231  0.0273  0.0709  0.4610
 1595SOL    HW1 5377   1.978   2.467   0.175 -0.3517  0.4940  0.9412
 1595SOL    HW2 5378   1.972   2.425   0.320 -2.4746 -0.0020  0.7419
 1596SOL     OW 5379   3.659   0.573   2.534  0.4306  0.1165 -0.9305
 1596SOL    HW1 5380   3.567   0.548   2.536  0.0317  1.3117 -2.4800
 1596SOL    HW2 5381   3.706   0.498   2.570 -1.2555  0.2006  1.6417
 1597SOL     OW 5382   2.704   2.296   3.476 -0.1550 -0.4023  0.2121
 1597SOL    HW1 5383   2.667   2.252   3.400 -0.9850  1.4310 -0.5231
 1597SOL    HW2 5384   2.773   2.353   3.440 -0.7043  0.6542  0.7641
 1598SOL     OW 5385   2.550   3.202   2.512  0.2065  0.4249 -0.0193
 1598SOL    HW1 5386   2.565   3.281   2.461 -0.9479 -0.0378 -1.1448
 1598SOL    HW2 5387   2.477   3.224   2.570 -0.0618  0.2355 -0.2755
 1599SOL     OW 5388   3.533   2.672   0.907  0.0267 -0.1859 -0.7078
 1599SOL    HW1 5389   3.471   2.655   0.837 -2.5097  1.5300  0.9521
 1599SOL    HW2 5390   3.537   2.767   0.914 -0.1226 -0.2787  1.6495
 1600SOL     OW 5391   1.140   2.483   0.044 -0.1608  0.3804 -0.3285
 1600SOL    HW1 5392   1.164   2.492  -0.049 -1.6644 -1.3317 -0.9383
 1600SOL    HW2 5393   1.113   2.392   0.053 -3.2347  1.2842  0.9546
 1601SOL     OW 5394   1.684   0.739   2.973 -0.2992 -0.4203  0.2518
 1601SOL    HW1 5395   1.681   0.820   3.025  0.8692 -0.7226  0.8204
 1601SOL    HW2 5396   1.661   0.767   2.885 -2.0274  0.1609  0.8350
 1602SOL     OW 5397   2.683   2.975   0.124  0.1030 -0.0333  0.3310
 1602SOL    HW1 5398   2.727   2.959   0.040  0.2872 -1.4587  0.6592
 1602SOL    HW2 5399   2.742   2.936   0.188 -0.3762  0.4242  1.0586
 1603SOL     OW 5400   3.821   1.977   1.761  0.3641  0.4051 -1.2520
 1603SOL    HW1 5401   3.870   1.999   1.841  2.3712  0.0644 -2.3431
 1603SOL    HW2 5402   3.839   2.050   1.701 -0.2230  0.1044 -1.8096
 1604SOL     OW 5403   1.474   2.812   0.224  0.1809 -0.5133 -0.5123
 1604SOL    HW1 5404   1.388   2.772   0.212  0.4511 -1.2505 -0.0711
 1604SOL    HW2 5405   1.531   2.739   0.250  0.5199  0.2797  1.0843
 1605SOL     OW 5406   3.852   0.057   0.090 -0.2296 -0.5829 -0.8282
 1605SOL    HW1 5407   3.891   0.059   0.178  0.7494 -1.5341 -1.2109
 1605SOL    HW2 5408   3.927   0.061   0.031 -0.8150 -0.9329 -1.6071
 1606SOL     OW 5409   2.950   3.729   1.636 -0.4287  0.4544 -0.1621
 1606SOL    HW1 5410   2.911   3.660   1.583 -1.5253  0.8323  0.1174
 1606SOL    HW2 5411   2.987   3.790   1.572  2.4485 -1.3862 -0.3893
 1607SOL     OW 5412   5.688   2.006   2.824  1.0064  0.1529  0.4892
 1607SOL    HW1 5413   5.675   2.092   2.785 -1.7726  1.3695  3.5973
 1607SOL    HW2 5414   5.651   1.944   2.760 -1.8065  1.8405  0.3125
 1608SOL     OW 5415   3.470   4.435   3.263  0.4041 -0.1774 -1.0636
 1608SOL    HW1 5416   3.380   4.436   3.298  0.2344 -1.3983 -1.4216
 1608SOL    HW2 5417   3.461   4.396   3.177  1.1912  0.4014 -1.4167
 1609SOL     OW 5418   2.506   4.157   2.004 -0.0561 -0.1483  0.3560
 1609SOL    HW1 5419   2.582   4.100   2.016 -0.0333 -0.3305 -0.5331
 1609SOL    HW2 5420   2.502   4.210   2.084 -0.0336 -1.3355  1.1667
 1610SOL     OW 5421   1.996   1.725   2.716 -0.4038 -0.2737  0.4740
 1610SOL    HW1 5422   2.055   1.801   2.710  0.4404 -0.8811  0.9614
 1610SOL    HW2 5423   1.910   1.764   2.728 -0.1109  0.6358 -0.1492
 1611SOL     OW 5424   2.055   3.280   1.890  0.6141  0.4829  0.0826
 1611SOL    HW1 5425   2.104   3.324   1.822  0.5174  1.5645  0.6881
 1611SOL    HW2 5426   2.114   3.277   1.965  0.4698 -0.0366  0.1794
 1612SOL     OW 5427   3.256   3.319   0.913 -0.7835 -0.3024  0.3256
 1612SOL    HW1 5428   3.281   3.411   0.922  1.1944 -0.8790  1.3262
 1612SOL    HW2 5429   3.248   3.306   0.819  0.3975  0.5610  0.0708
 1613SOL     OW 5430   1.820   4.048   0.263 -0.2333  0.0088 -0.5521
 1613SOL    HW1 5431   1.845   3.956   0.259  1.1462  0.3382  0.0406
 1613SOL    HW2 5432   1.743   4.050   0.320  0.0874 -0.7165 -0.0840
 1614SOL     OW 5433   3.935   1.119   2.535  0.1552 -0.0514 -0.4122
 1614SOL    HW1 5434   3.868   1.081   2.478  1.4145  0.3778 -2.2610
 1614SOL    HW2 5435   3.989   1.044   2.561 -0.3864 -0.2386  0.2122
 1615SOL     OW 5436   1.513   3.521   2.133  0.2249  0.6311  0.0494
 1615SOL    HW1 5437   1.510   3.577   2.211 -1.5025  0.5359  0.0827
 1615SOL    HW2 5438   1.606   3.518   2.110  0.6113  1.7665  1.3018
 1616SOL     OW 5439   1.681   2.415   3.535  0.2204  0.1430  0.1173
 1616SOL    HW1 5440   1.708   2.342   3.479  0.8369 -0.9539  1.7896
 1616SOL    HW2 5441   1.752   2.480   3.525  0.6953 -0.3565  0.1928
 1617SOL     OW 5442   4.376   0.264   3.133  0.0713 -0.1805 -0.3019
 1617SOL    HW1 5443   4.393   0.209   3.210  1.7578  1.7362  0.7800
 1617SOL    HW2 5444   4.305   0.322   3.161 -0.7454 -0.8433 -0.9530
 1618SOL     OW 5445   3.733   1.797   3.097  0.4467 -0.2276  0.5224
 1618SOL    HW1 5446   3.771   1.858   3.033 -0.0113  0.4455  0.8790
 1618SOL    HW2 5447   3.659   1.845   3.135 -0.5892 -1.4004  0.0555
 1619SOL     OW 5448   3.289   2.225   0.596 -0.2329 -0.3736 -0.0661
 1619SOL    HW1 5449   3.292   2.130   0.607  0.3311 -0.3648 -0.1156
 1619SOL    HW2 5450   3.226   2.238   0.525  0.1263 -0.7498 -0.4663
 1620SOL     OW 5451   1.019   3.048   1.107 -0.0453 -0.0071  0.1404
 1620SOL    HW1 5452   1.087   3.024   1.045 -0.2013 -0.4013  0.1200
 1620SOL    HW2 5453   0.965   2.969   1.116 -1.2915  0.7070 -0.8654
 1621SOL     OW 5454   3.053   2.748   3.040  0.1347  0.2075 -0.3306
 1621SOL    HW1 5455   3.104   2.780   3.115  1.0107 -0.5004 -0.6112
 1621SOL    HW2 5456   3.112   2.688   2.995 -0.2258  0.9501 -1.8453
 1622SOL     OW 5457   2.299   1.987   0.159  0.0280  0.3044  0.3729
 1622SOL    HW1 5458   2.280   2.079   0.142 -0.7780  0.0780  0.0111
 1622SOL    HW2 5459   2.233   1.960   0.222  0.6072  0.1163  0.9021
 1623SOL     OW 5460   3.007   2.883   3.376 -0.0038  0.2392  0.3917
 1623SOL    HW1 5461   3.078   2.826   3.404  0.2148  0.3026 -0.0228
 1623SOL    HW2 5462   3.050   2.954   3.328 -0.3167  0.4702  0.4457
 1624SOL     OW 5463   2.628   2.510   3.052  0.3319 -0.0839 -0.3827
 1624SOL    HW1 5464   2.676   2.592   3.053 -1.4090  1.0089  1.1869
 1624SOL    HW2 5465   2.567   2.518   2.979  0.6146 -0.2590 -0.6370
 1625SOL     OW 5466   3.298   4.684   0.387  0.0802 -0.3994 -0.0541
 1625SOL    HW1 5467   3.317   4.680   0.294  1.1536  1.0066  0.0726
 1625SOL    HW2 5468   3.206   4.659   0.394 -0.6179  1.4618 -1.7317
 1626SOL     OW 5469   2.862   1.938   0.194  0.0543  0.0443 -0.3716
 1626SOL    HW1 5470   2.779   1.891   0.187  0.5461 -1.2526  1.5205
 1626SOL    HW2 5471   2.843   2.013   0.251 -0.0335  0.2999 -0.7387
 1627SOL     OW 5472   1.389   4.817   2.682  0.2239  0.3464  0.1448
 1627SOL    HW1 5473   1.434   4.886   2.730  0.1388 -0.4590  1.4423
 1627SOL    HW2 5474   1.331   4.776   2.746  2.1317 -2.5738  0.2137
 1628SOL     OW 5475   2.240   1.975   0.909 -0.7190 -0.5773 -0.2182
 1628SOL    HW1 5476   2.146   1.992   0.912 -0.3475  1.6158  0.9058
 1628SOL    HW2 5477   2.274   2.041   0.848  0.5386  1.5471  2.5692
 1629SOL     OW 5478   2.740   3.118   3.185  0.5316 -0.3220  0.6633
 1629SOL    HW1 5479   2.820   3.168   3.199 -0.1947  0.8789  0.6945
 1629SOL    HW2 5480   2.674   3.162   3.240 -1.1864  1.4669 -2.4910
 1630SOL     OW 5481   2.133   4.090   2.956  0.9290  0.5140  0.1885
 1630SOL    HW1 5482   2.106   4.026   2.891  1.0664  1.4086 -0.7708
 1630SOL    HW2 5483   2.172   4.162   2.906 -0.4190  1.9630  1.0993
 1631SOL     OW 5484   0.361   3.192   0.441 -0.0415 -0.6926  0.7256
 1631SOL    HW1 5485   0.281   3.158   0.482 -0.1354  1.5565  2.6088
 1631SOL    HW2 5486   0.348   3.175   0.348 -0.6468 -4.4050  1.3254
 1632SOL     OW 5487   3.184   3.732   2.267  0.2345 -0.5751  0.1013
 1632SOL    HW1 5488   3.181   3.644   2.230  0.3024  0.3641 -2.3376
 1632SOL    HW2 5489   3.266   3.769   2.233 -0.1014  0.6358  0.5798
 1633SOL     OW 5490   3.244   2.037   2.963  0.1480 -0.0087  0.5207
 1633SOL    HW1 5491   3.198   2.117   2.989 -2.2319 -1.1247  0.0725
 1633SOL    HW2 5492   3.262   2.048   2.870 -1.6366 -0.5686  0.0625
 1634SOL     OW 5493   2.013   1.005   0.197  0.2706  0.0257  0.3049
 1634SOL    HW1 5494   2.101   1.021   0.162  0.6689  0.1041  1.3138
 1634SOL    HW2 5495   1.998   1.075   0.260  0.2289 -0.9855  1.4705
 1635SOL     OW 5496   2.020   1.441   0.893 -0.1552 -0.3559  0.5170
 1635SOL    HW1 5497   2.055   1.529   0.907 -2.3109  0.7757 -0.6726
 1635SOL    HW2 5498   2.064   1.410   0.814 -0.3037  0.1838  0.2214
 1636SOL     OW 5499   3.326   3.230   3.117 -0.0260 -0.0465 -0.6686
 1636SOL    HW1 5500   3.401   3.217   3.059  0.0388  0.7324 -0.7713
 1636SOL    HW2 5501   3.341   3.316   3.158 -1.4629  0.7100 -1.6338
 1637SOL     OW 5502   6.896   2.429   2.438 -0.5542 -0.0782 -0.3104
 1637SOL    HW1 5503   6.840   2.398   2.509 -0.3524 -0.8829 -0.4926
 1637SOL    HW2 5504   6.980   2.447   2.480 -0.8219  0.7377 -0.1107
 1638SOL     OW 5505   2.524   1.125   2.519  0.1219  0.5482  0.2585
 1638SOL    HW1 5506   2.610   1.154   2.492  1.1649 -0.0271  2.7057
 1638SOL    HW2 5507   2.507   1.171   2.601  0.3621 -2.8688  2.4587
 1639SOL     OW 5508   3.001   3.936   3.226 -0.1062  0.2309  0.0780
 1639SOL    HW1 5509   2.952   3.884   3.161  0.2997  0.7830 -0.6864
 1639SOL    HW2 5510   2.934   3.989   3.269 -0.1596  1.4688 -1.4123
 1640SOL     OW 5511   1.739   4.523   3.268  0.5584  0.1307 -0.7879
 1640SOL    HW1 5512   1.667   4.568   3.312  1.3810  0.1927  0.5225
 1640SOL    HW2 5513   1.806   4.590   3.257  0.8696 -0.2067 -0.9582
 1641SOL     OW 5514   2.322   2.715   0.363  0.4260  0.0985 -0.4212
 1641SOL    HW1 5515   2.413   2.714   0.333  1.3294 -1.3777  2.0907
 1641SOL    HW2 5516   2.326   2.751   0.451 -1.2673 -0.9158  0.1168
 1642SOL     OW 5517   1.841   2.185   3.045 -0.1061 -0.2644 -0.5902
 1642SOL    HW1 5518   1.839   2.261   2.987 -0.5042  1.0754  1.0681
 1642SOL    HW2 5519   1.929   2.187   3.083  0.1081 -1.0481 -1.0305
 1643SOL     OW 5520   5.120   2.179   0.676  0.9900 -0.3476  0.2371
 1643SOL    HW1 5521   5.047   2.209   0.622  1.1116  1.2850  0.9010
 1643SOL    HW2 5522   5.198   2.214   0.634  1.1445  0.2894  1.0125
 1644SOL     OW 5523   1.329   2.300   0.308  0.6121 -0.1981  0.3608
 1644SOL    HW1 5524   1.288   2.285   0.223 -0.3270  0.7201  0.6354
 1644SOL    HW2 5525   1.258   2.293   0.371  1.1181  0.1146  0.9779
 1645SOL     OW 5526   2.859   5.317   0.713 -0.1640  0.1208  0.1691
 1645SOL    HW1 5527   2.923   5.253   0.682  0.4631  0.5357  0.5805
 1645SOL    HW2 5528   2.787   5.312   0.650 -0.4828 -1.5314  0.6130
 1646SOL     OW 5529   5.095   1.321   2.529  0.3637  0.2279 -0.0667
 1646SOL    HW1 5530   5.114   1.303   2.621  2.0424  0.5072 -0.3101
 1646SOL    HW2 5531   5.071   1.414   2.527  1.5016  0.5387 -0.0342
 1647SOL     OW 5532   1.703   2.599   3.104  0.1144 -0.2937  0.2786
 1647SOL    HW1 5533   1.621   2.555   3.125  0.3902 -0.2587  1.5497
 1647SOL    HW2 5534   1.677   2.684   3.068 -0.4063 -0.5310  0.1009
 1648SOL     OW 5535   1.248   1.993   3.493 -0.0179 -0.2223  0.9519
 1648SOL    HW1 5536   1.199   2.069   3.524 -0.1914  0.3645 -0.6320
 1648SOL    HW2 5537   1.338   2.024   3.488 -0.2209  0.2262 -0.5756
 1649SOL     OW 5538   2.658   4.856   2.401  0.8937  0.2216 -0.1541
 1649SOL    HW1 5539   2.626   4.909   2.328  1.0160  0.3739 -0.0964
 1649SOL    HW2 5540   2.652   4.913   2.477  1.3460  0.2672 -0.1509
 1650SOL     OW 5541   3.854   3.097  -0.035 -0.6197  0.0873 -0.8665
 1650SOL    HW1 5542   3.772   3.047  -0.034 -0.0221 -0.9338  0.1969
 1650SOL    HW2 5543   3.828   3.185  -0.009 -1.3935 -0.2181 -0.5582
 1651SOL     OW 5544   1.702   3.167   3.528 -0.5530  0.2082  0.3992
 1651SOL    HW1 5545   1.644   3.172   3.452 -1.0500  1.2068  0.8229
 1651SOL    HW2 5546   1.642   3.153   3.602  0.0670 -3.0250  0.4176
 1652SOL     OW 5547   3.705   3.551   2.285 -0.6938  0.1140 -0.0293
 1652SOL    HW1 5548   3.652   3.494   2.230 -0.0831 -0.1843 -0.3240
 1652SOL    HW2 5549   3.760   3.599   2.224  2.1667 -2.3736  0.3538
 1653SOL     OW 5550   3.172   2.593   2.005 -0.0948  0.2618 -0.1592
 1653SOL    HW1 5551   3.087   2.626   1.975  0.2756  1.4581  0.0296
 1653SOL    HW2 5552   3.236   2.649   1.960  0.5803 -0.3196  0.0556
 1654SOL     OW 5553   3.310   1.247   2.833 -0.0767  0.0288 -0.2522
 1654SOL    HW1 5554   3.370   1.322   2.833 -1.9066  1.6280  1.1886
 1654SOL    HW2 5555   3.250   1.266   2.905 -0.7880 -2.7461 -0.0334
 1655SOL     OW 5556   1.578   3.618   1.504  0.6058 -0.7270  0.7900
 1655SOL    HW1 5557   1.638   3.609   1.430 -0.5023  0.4654 -0.3013
 1655SOL    HW2 5558   1.534   3.534   1.511  1.4841 -1.1958  0.8016
 1656SOL     OW 5559   0.941   3.222   1.521 -0.8519  0.1850 -0.2164
 1656SOL    HW1 5560   0.870   3.168   1.488 -0.4251  0.0776 -0.9935
 1656SOL    HW2 5561   1.016   3.199   1.466 -0.2155  0.2857  0.5925
 1657SOL     OW 5562   3.369   2.977   2.470  0.2694  0.5877  0.1940
 1657SOL    HW1 5563   3.303   2.935   2.415 -0.2864  1.8727 -0.1454
 1657SOL    HW2 5564   3.329   2.979   2.557  0.2463  0.5245  0.1851
 1658SOL     OW 5565   3.839   2.931   2.322 -0.0829 -0.3857 -0.5089
 1658SOL    HW1 5566   3.755   2.908   2.282 -0.0204 -0.2469 -0.7258
 1658SOL    HW2 5567   3.819   3.005   2.379 -0.2730 -0.9348  0.1451
 1659SOL     OW 5568   2.541   3.126   1.598 -0.0170 -0.0820  0.2622
 1659SOL    HW1 5569   2.530   3.211   1.555  2.0206  1.0209  1.7051
 1659SOL    HW2 5570   2.485   3.131   1.676 -0.1473 -0.1757  0.1732
 1660SOL     OW 5571   2.569   0.962   3.305 -0.1009 -0.3467  0.1068
 1660SOL    HW1 5572   2.611   1.005   3.380  0.5688 -1.3197  0.3153
 1660SOL    HW2 5573   2.640   0.950   3.242 -0.8652  1.4135 -1.1595
 1661SOL     OW 5574   3.357   2.598   0.671 -0.0454 -0.1582 -0.0105
 1661SOL    HW1 5575   3.281   2.553   0.710  1.0094 -0.2684  2.0603
 1661SOL    HW2 5576   3.396   2.533   0.613  0.4307 -1.3739  1.5937
 1662SOL     OW 5577   3.485   1.164   0.284 -0.1957 -0.1061  0.4284
 1662SOL    HW1 5578   3.497   1.251   0.247  2.5186 -1.1169 -1.4529
 1662SOL    HW2 5579   3.573   1.139   0.313 -0.7282 -2.4973  0.1861
 1663SOL     OW 5580   7.439   4.068   2.697 -0.0157 -0.1307  0.6631
 1663SOL    HW1 5581   7.468   4.154   2.666  1.1572 -0.9163 -0.5534
 1663SOL    HW2 5582   7.425   4.017   2.617 -0.6848 -1.0810  1.3632
 1664SOL     OW 5583   2.201   1.435   0.425  0.9697 -0.4608  0.1680
 1664SOL    HW1 5584   2.291   1.406   0.410  0.1102 -2.6950 -1.1328
 1664SOL    HW2 5585   2.174   1.476   0.343  0.5960 -0.3648  0.3328
 1665SOL     OW 5586   2.546   3.252   3.323 -0.7486  0.3770  0.3120
 1665SOL    HW1 5587   2.540   3.306   3.402  0.9763 -0.5929  1.1610
 1665SOL    HW2 5588   2.539   3.315   3.251 -1.6140  1.3739  1.2260
 1666SOL     OW 5589   4.314   2.472   0.667 -0.2518  0.2383 -1.0856
 1666SOL    HW1 5590   4.258   2.517   0.731 -0.5741 -0.5120 -0.8232
 1666SOL    HW2 5591   4.254   2.447   0.597 -0.4921 -1.4866 -0.3243
 1667SOL     OW 5592   1.510   3.913   1.906  0.1746 -0.1568  0.7587
 1667SOL    HW1 5593   1.440   3.958   1.861  0.7750  0.4633  0.4353
 1667SOL    HW2 5594   1.469   3.832   1.939 -0.9749  0.7381  1.6002
 1668SOL     OW 5595   1.647   2.211   0.966 -0.1297  0.7744  0.2855
 1668SOL    HW1 5596   1.561   2.224   1.004  0.3194  0.5097  1.4350
 1668SOL    HW2 5597   1.646   2.121   0.934  0.0834  0.4154  1.2825
 1669SOL     OW 5598   1.102   3.004   3.357 -0.3219  0.5816  0.5792
 1669SOL    HW1 5599   1.060   3.090   3.359  1.4958  1.5730 -0.9185
 1669SOL    HW2 5600   1.080   2.965   3.442 -0.5137  2.8697  1.6590
 1670SOL     OW 5601   0.932   1.133   3.034 -0.1024  0.8073  0.0258
 1670SOL    HW1 5602   0.945   1.217   2.990 -1.0136  0.5139 -0.8340
 1670SOL    HW2 5603   0.869   1.087   2.979  0.9789 -0.7692  0.0440
 1671SOL     OW 5604   2.836   2.263   2.032 -0.3755 -0.4856 -0.4248
 1671SOL    HW1 5605   2.828   2.168   2.026  0.7544 -0.5540 -1.1251
 1671SOL    HW2 5606   2.911   2.277   2.089 -1.9725  0.0470  1.6767
 1672SOL     OW 5607   3.117   2.704   0.279 -0.0233 -0.2391  0.4804
 1672SOL    HW1 5608   3.068   2.647   0.220 -0.5583  0.2860  0.4139
 1672SOL    HW2 5609   3.126   2.653   0.359 -0.4182 -0.4501  0.3922
 1673SOL     OW 5610   2.843   1.695   3.445 -0.1528  0.3691  0.2637
 1673SOL    HW1 5611   2.832   1.653   3.530 -0.1951 -0.9120 -0.3464
 1673SOL    HW2 5612   2.857   1.787   3.465  0.4720 -0.0123  1.6821
 1674SOL     OW 5613   1.193   3.591   0.482  0.0656  0.0385  0.0464
 1674SOL    HW1 5614   1.176   3.497   0.488 -0.8207  0.1382 -0.6874
 1674SOL    HW2 5615   1.108   3.629   0.460  0.0443  1.1939  1.8537
 1675SOL     OW 5616   1.970   4.510   2.892  0.1814 -0.6693 -0.9055
 1675SOL    HW1 5617   1.901   4.444   2.900 -0.4769 -0.0034 -0.9975
 1675SOL    HW2 5618   2.021   4.483   2.815 -0.3878 -0.7862 -1.2400
 1676SOL     OW 5619   1.972   2.258   1.698  0.6248  0.2557  0.1752
 1676SOL    HW1 5620   1.989   2.165   1.683 -1.7751 -0.1229 -0.5856
 1676SOL    HW2 5621   2.001   2.274   1.787 -0.2673 -1.6172  0.8399
 1677SOL     OW 5622   1.558   2.992   2.464  0.1958 -0.2652  0.0198
 1677SOL    HW1 5623   1.628   3.032   2.517  0.5605 -1.7049  0.6736
 1677SOL    HW2 5624   1.554   3.046   2.385  1.9644 -0.0498  0.0316
 1678SOL     OW 5625   1.675   2.445   0.586  0.4923  0.3373  0.2738
 1678SOL    HW1 5626   1.621   2.459   0.664  0.3473  1.8393 -0.0625
 1678SOL    HW2 5627   1.654   2.356   0.558 -0.1325  0.0967  1.4222
 1679SOL     OW 5628   4.657   3.159   0.844  0.5239  0.5945  0.1631
 1679SOL    HW1 5629   4.738   3.112   0.862  0.5962 -0.2074 -1.9590
 1679SOL    HW2 5630   4.686   3.247   0.819  0.8496  0.1183 -1.2567
 1680SOL     OW 5631   2.550   3.580   0.873  0.2968  0.1404 -0.3268
 1680SOL    HW1 5632   2.454   3.581   0.873  0.2476  1.8006 -2.4921
 1680SOL    HW2 5633   2.575   3.668   0.900  1.3239 -0.8038  2.0705
 1681SOL     OW 5634   0.537   3.111   3.137 -0.2439 -0.3862  0.1286
 1681SOL    HW1 5635   0.472   3.118   3.207 -1.0235 -1.1111 -0.4972
 1681SOL    HW2 5636   0.526   3.022   3.103  1.7964 -0.9105  0.6739
 1682SOL     OW 5637   2.656   1.737   2.029  0.5923  0.0040  0.3085
 1682SOL    HW1 5638   2.667   1.799   2.102  0.9761 -0.7203  0.8781
 1682SOL    HW2 5639   2.592   1.673   2.061 -1.7581  1.4535 -1.1952
 1683SOL     OW 5640   1.255   0.296   2.870  0.0649 -0.4318  0.1977
 1683SOL    HW1 5641   1.351   0.302   2.868  0.0153  0.4097 -2.2359
 1683SOL    HW2 5642   1.229   0.353   2.942  1.3587 -0.5281  0.7783
 1684SOL     OW 5643   3.937   1.307   0.865  0.1636  0.4184  0.4370
 1684SOL    HW1 5644   3.895   1.390   0.888 -0.0460  0.0537  1.3904
 1684SOL    HW2 5645   3.899   1.243   0.925  1.2483 -0.1311  0.5619
 1685SOL     OW 5646   2.777   2.156   0.351 -0.5350  0.2464 -0.5893
 1685SOL    HW1 5647   2.685   2.171   0.331 -0.1078  1.7763 -1.5751
 1685SOL    HW2 5648   2.820   2.239   0.332  0.8607  0.0053  1.1793
 1686SOL     OW 5649   3.833   1.455   3.317  0.6762 -0.6483 -0.6297
 1686SOL    HW1 5650   3.852   1.532   3.263  1.7533 -1.0598 -0.8621
 1686SOL    HW2 5651   3.884   1.385   3.277  1.3248 -1.0187  0.8002
 1687SOL     OW 5652   2.469   2.703   0.893 -0.0563  0.3932 -0.2308
 1687SOL    HW1 5653   2.406   2.767   0.859  0.2915  0.5588 -0.5742
 1687SOL    HW2 5654   2.414   2.631   0.925 -0.4078  0.1330 -1.3364
 1688SOL     OW 5655   1.275   3.737   3.306  0.0324 -0.5849  0.5142
 1688SOL    HW1 5656   1.288   3.644   3.286 -1.4085 -0.5791 -0.5933
 1688SOL    HW2 5657   1.285   3.782   3.222 -0.2581  0.1468  0.8611
 1689SOL     OW 5658   2.508   2.080   0.849 -0.2068 -0.6315  0.0301
 1689SOL    HW1 5659   2.501   2.019   0.923  1.0162  2.4987  3.0337
 1689SOL    HW2 5660   2.601   2.084   0.830 -0.3363 -0.1587 -0.5160
 1690SOL     OW 5661   3.389   2.930   3.263  0.3935  0.4925 -0.0187
 1690SOL    HW1 5662   3.379   2.978   3.345 -1.6057 -0.4479  0.3449
 1690SOL    HW2 5663   3.353   2.843   3.281  2.3649 -0.6333 -1.1447
 1691SOL     OW 5664   4.666   4.560   0.908 -0.0101  0.0251 -0.3267
 1691SOL    HW1 5665   4.759   4.539   0.915 -0.2901 -1.2353 -0.2093
 1691SOL    HW2 5666   4.633   4.500   0.842 -1.3472 -1.7372  1.8056
 1692SOL     OW 5667   0.638   1.738   1.672  0.0802 -0.4568  0.4496
 1692SOL    HW1 5668   0.587   1.676   1.723 -0.9474  0.1527  0.1966
 1692SOL    HW2 5669   0.597   1.823   1.689 -0.5580 -0.2886 -1.6650
 1693SOL     OW 5670   1.951   1.272   1.746 -0.1987  0.1345 -0.0664
 1693SOL    HW1 5671   1.958   1.337   1.676 -2.2116 -1.0422 -1.4888
 1693SOL    HW2 5672   1.893   1.312   1.810 -0.4565  0.2311 -0.3554
 1694SOL     OW 5673   2.164   2.621   2.107  0.6320 -0.2620  0.1350
 1694SOL    HW1 5674   2.236   2.684   2.106 -1.8235  2.9229  2.1357
 1694SOL    HW2 5675   2.122   2.632   2.022  1.4853 -0.9149 -0.3905
 1695SOL     OW 5676   1.988   1.724   1.264 -0.9001  0.2374  0.5837
 1695SOL    HW1 5677   1.930   1.747   1.337  0.2216  1.6132  1.0954
 1695SOL    HW2 5678   2.072   1.703   1.306 -1.0945 -2.2159 -0.0962
 1696SOL     OW 5679   3.626   2.921   0.832  0.1992 -0.5255  0.8035
 1696SOL    HW1 5680   3.693   2.974   0.788 -1.0938 -0.1294 -0.7748
 1696SOL    HW2 5681   3.558   2.983   0.856 -1.3850 -1.3835 -1.1488
 1697SOL     OW 5682   3.602   0.884   0.613  0.1784  0.0317  0.1762
 1697SOL    HW1 5683   3.659   0.959   0.594  1.4994 -1.5588 -2.9958
 1697SOL    HW2 5684   3.513   0.919   0.611  0.8255  1.8853  1.2701
 1698SOL     OW 5685   3.282   1.508   0.435  0.0636 -0.1408  0.6253
 1698SOL    HW1 5686   3.371   1.543   0.446 -0.5065  0.9885  1.9224
 1698SOL    HW2 5687   3.238   1.571   0.379 -0.0000 -0.5968  0.1482
 1699SOL     OW 5688   3.034   1.000   2.913  0.2575 -0.1865  0.6448
 1699SOL    HW1 5689   2.998   1.063   2.976  1.1809  0.7273  0.2889
 1699SOL    HW2 5690   2.973   1.002   2.839  0.6575  0.8511  0.3286
 1700SOL     OW 5691   3.016   1.504   3.315 -0.5283  0.1273 -0.0675
 1700SOL    HW1 5692   2.958   1.572   3.349 -0.9886  0.2223 -0.9885
 1700SOL    HW2 5693   3.068   1.475   3.390  0.5151  2.3208  0.1341
 1701SOL     OW 5694   1.436   1.242   0.177 -0.2351 -0.3323 -0.0084
 1701SOL    HW1 5695   1.358   1.205   0.136 -0.8515  0.7949  0.1224
 1701SOL    HW2 5696   1.445   1.195   0.260 -3.6375  2.7092  2.3780
 1702SOL     OW 5697   2.407   3.300   0.151 -0.1578  0.4678 -0.3399
 1702SOL    HW1 5698   2.396   3.225   0.210 -0.8296  2.8131  2.7875
 1702SOL    HW2 5699   2.500   3.298   0.126  0.5081  0.0491  1.9289
 1703SOL     OW 5700   0.856   2.214   1.622 -0.2795 -0.2876 -0.0079
 1703SOL    HW1 5701   0.803   2.197   1.544 -0.3655 -0.0683  0.0018
 1703SOL    HW2 5702   0.873   2.308   1.620 -0.1649 -0.3029  0.1645
 1704SOL     OW 5703   7.470   2.296   3.383  0.2842 -0.1777  0.7296
 1704SOL    HW1 5704   7.531   2.228   3.353  1.0246 -0.3366  2.5049
 1704SOL    HW2 5705   7.490   2.372   3.327  0.0313 -1.1316 -0.7015
 1705SOL     OW 5706   2.398   1.261   0.382  0.1158 -0.1851  0.1005
 1705SOL    HW1 5707   2.462   1.302   0.440 -0.5336 -0.0725  0.7523
 1705SOL    HW2 5708   2.444   1.185   0.345 -0.5025 -2.4687  3.5449
 1706SOL     OW 5709   3.277   2.847   0.723  0.0491  0.1079 -0.0617
 1706SOL    HW1 5710   3.188   2.832   0.756 -0.2038  0.3954 -0.5994
 1706SOL    HW2 5711   3.310   2.759   0.705 -0.0165 -0.0194  0.4158
 1707SOL     OW 5712   3.716   1.191   2.210  0.1614  0.8307  0.3092
 1707SOL    HW1 5713   3.721   1.127   2.282  2.5258  1.2416  0.5981
 1707SOL    HW2 5714   3.627   1.183   2.177 -0.1525 -1.3571  1.4864
 1708SOL     OW 5715   3.214   2.537   1.469 -0.1784  0.1646  0.3983
 1708SOL    HW1 5716   3.161   2.510   1.545 -2.0087 -1.5202 -1.3334
 1708SOL    HW2 5717   3.151   2.579   1.410  1.1851  1.4004 -0.2220
 1709SOL     OW 5718   3.188   3.741   0.162  0.1931  0.1155  0.0858
 1709SOL    HW1 5719   3.120   3.804   0.142 -1.1322 -1.1245  0.5264
 1709SOL    HW2 5720   3.269   3.783   0.134 -0.7015  1.7710 -0.1104
 1710SOL     OW 5721   1.992   4.036   2.555  0.9115  0.3430  0.4454
 1710SOL    HW1 5722   1.912   3.984   2.561  0.5833  0.9704  1.7264
 1710SOL    HW2 5723   1.965   4.125   2.576  1.6384  0.8986 -0.8403
 1711SOL     OW 5724   0.943   4.276   0.204  0.0710 -0.1416 -0.3801
 1711SOL    HW1 5725   0.889   4.265   0.282 -1.4851 -0.8609 -1.4884
 1711SOL    HW2 5726   0.933   4.368   0.180  0.0626 -0.0635 -0.0833
 1712SOL     OW 5727   4.089   2.355   2.405 -0.4466  0.0576  0.0733
 1712SOL    HW1 5728   4.138   2.436   2.420 -0.3180  0.3031 -1.4509
 1712SOL    HW2 5729   3.997   2.380   2.414 -0.5500  0.9679 -2.4763
 1713SOL     OW 5730   3.829   1.597   0.868 -0.3815  0.8708 -0.4494
 1713SOL    HW1 5731   3.753   1.545   0.843 -0.4978  1.1135 -0.6018
 1713SOL    HW2 5732   3.800   1.688   0.861 -0.6889  0.9545  1.4259
 1714SOL     OW 5733   3.678   0.846   2.688 -0.1419  0.1038 -0.3601
 1714SOL    HW1 5734   3.654   0.767   2.641 -1.9615 -0.3925  1.2930
 1714SOL    HW2 5735   3.655   0.918   2.628  1.8703 -0.5223 -2.0208
 1715SOL     OW 5736   3.037   3.293   1.728  0.0676  0.5627  0.4203
 1715SOL    HW1 5737   3.128   3.304   1.754  0.2170  0.1645  0.0793
 1715SOL    HW2 5738   3.018   3.201   1.747 -0.3007  0.6735  0.6013
 1716SOL     OW 5739   0.446   4.979   1.669 -0.5065  0.3590 -0.0787
 1716SOL    HW1 5740   0.423   4.919   1.740 -0.3878 -0.1464 -0.4620
 1716SOL    HW2 5741   0.406   4.940   1.591  1.1283 -0.2263 -0.6634
 1717SOL     OW 5742   2.836   4.715   1.888  0.1546 -0.2756  0.2732
 1717SOL    HW1 5743   2.917   4.684   1.848  0.5924  0.2283  0.7494
 1717SOL    HW2 5744   2.864   4.764   1.965 -0.5693  0.3632  0.1471
 1718SOL     OW 5745   3.610   4.027   1.621 -0.5026  0.3512  0.7512
 1718SOL    HW1 5746   3.680   3.990   1.674 -1.6315 -1.4498  1.0981
 1718SOL    HW2 5747   3.531   3.979   1.648 -1.0463 -1.3452 -3.0836
 1719SOL     OW 5748   0.528   3.433   1.573  0.2598 -0.1680 -0.0352
 1719SOL    HW1 5749   0.536   3.342   1.603 -0.9959 -0.4573 -0.5457
 1719SOL    HW2 5750   0.573   3.434   1.489 -0.8039 -0.6406 -0.6329
 1720SOL     OW 5751   0.721   1.814   3.288 -0.0645  0.3907 -0.0302
 1720SOL    HW1 5752   0.806   1.857   3.296  0.9957 -1.4554 -0.6561
 1720SOL    HW2 5753   0.731   1.732   3.337 -1.1585 -0.2718 -0.8595
 1721SOL     OW 5754   2.120   2.570   3.005  0.5369 -0.1415  0.4346
 1721SOL    HW1 5755   2.210   2.572   2.972  0.4342  0.4937  0.1783
 1721SOL    HW2 5756   2.129   2.592   3.098  0.5056  1.7105  0.0450
 1722SOL     OW 5757   4.004   3.738   1.804  0.6197 -0.2333 -0.2396
 1722SOL    HW1 5758   3.998   3.672   1.735 -1.6261  0.2050 -0.5362
 1722SOL    HW2 5759   4.091   3.776   1.793 -0.0940  0.7333 -3.7206
 1723SOL     OW 5760   2.308   3.950   2.067 -0.0551 -0.2227  0.3590
 1723SOL    HW1 5761   2.352   4.029   2.036  3.2328 -1.9686  0.0682
 1723SOL    HW2 5762   2.219   3.956   2.033  0.6236  2.4482 -1.2085
 1724SOL     OW 5763   4.072   0.631   1.313  0.3229 -0.0992 -0.4047
 1724SOL    HW1 5764   4.040   0.715   1.282  1.2913  0.0624 -1.0151
 1724SOL    HW2 5765   4.150   0.652   1.364 -0.6046 -0.4639  1.2393
 1725SOL     OW 5766   2.687   2.002   2.711 -0.5066 -0.6849  0.0057
 1725SOL    HW1 5767   2.741   2.028   2.637 -0.3882 -1.2612 -0.1153
 1725SOL    HW2 5768   2.745   1.949   2.766 -0.8933 -1.1570 -0.0368
 1726SOL     OW 5769   1.776   4.076   2.761 -0.3609 -0.7037  0.7700
 1726SOL    HW1 5770   1.711   4.014   2.728 -0.6918 -0.6194  1.2512
 1726SOL    HW2 5771   1.853   4.023   2.779  0.6789 -0.4347 -2.3253
 1727SOL     OW 5772   3.534   3.551   2.637  0.1015 -0.2566 -0.0329
 1727SOL    HW1 5773   3.579   3.468   2.653 -0.8342 -1.4992 -3.1080
 1727SOL    HW2 5774   3.443   3.534   2.663  0.6748  1.4103  3.6733
 1728SOL     OW 5775   3.052   2.223   0.854  0.1817  0.3121 -0.6524
 1728SOL    HW1 5776   3.060   2.162   0.781  2.0182 -0.3751  0.0543
 1728SOL    HW2 5777   3.118   2.193   0.917 -0.5568  1.5738  0.7820
 1729SOL     OW 5778   2.970   3.507   2.583  0.5527  0.1320 -0.4601
 1729SOL    HW1 5779   3.058   3.498   2.619  0.0030 -2.4950  0.4565
 1729SOL    HW2 5780   2.939   3.417   2.572 -1.5297  0.9495 -2.0358
 1730SOL     OW 5781   1.220   2.995   0.888  0.1163 -0.0849 -0.0413
 1730SOL    HW1 5782   1.253   2.927   0.830  2.2355 -0.7067  1.7321
 1730SOL    HW2 5783   1.238   3.078   0.843  2.4936 -0.5122  0.0101
 1731SOL     OW 5784   3.189   2.992   1.873  0.2270  0.7714 -0.1230
 1731SOL    HW1 5785   3.201   2.908   1.828  0.6628  1.2444 -0.9106
 1731SOL    HW2 5786   3.099   2.989   1.906  0.1816  0.0666 -0.3006
 1732SOL     OW 5787   3.450   1.735   0.356 -0.2824  0.0072  0.5295
 1732SOL    HW1 5788   3.521   1.731   0.421 -1.2450 -0.5047  1.5835
 1732SOL    HW2 5789   3.492   1.769   0.277  0.8330  1.1117  1.5471
 1733SOL     OW 5790   3.870  -0.011   2.890 -0.2379 -0.6016 -0.2209
 1733SOL    HW1 5791   3.923   0.011   2.813  1.6189 -2.1936  0.5211
 1733SOL    HW2 5792   3.872   0.068   2.944  1.0518 -0.4775 -0.4266
 1734SOL     OW 5793   0.752   2.538   1.316 -0.5203 -0.0083 -0.0598
 1734SOL    HW1 5794   0.710   2.492   1.389  0.7266  0.5958  1.0797
 1734SOL    HW2 5795   0.803   2.471   1.272 -1.7133 -0.4974 -0.7523
 1735SOL     OW 5796   4.202   1.234   2.349  0.1178  0.3152 -0.5590
 1735SOL    HW1 5797   4.118   1.255   2.390  0.2270 -0.4610  0.0877
 1735SOL    HW2 5798   4.182   1.164   2.288  0.4439 -0.5712  0.3201
 1736SOL     OW 5799   1.578   2.256   0.426 -0.1552  0.0935 -0.0057
 1736SOL    HW1 5800   1.502   2.228   0.375 -0.3918 -0.0466  0.4229
 1736SOL    HW2 5801   1.651   2.248   0.365 -0.1309 -1.9068  0.2217
 1737SOL     OW 5802   3.146   2.929   2.320 -0.5590 -0.2704 -0.3996
 1737SOL    HW1 5803   3.113   3.019   2.324  1.6391  0.6065 -0.8322
 1737SOL    HW2 5804   3.078   2.881   2.273 -1.2687  1.4011 -1.1606
 1738SOL     OW 5805   2.540   3.935   2.908 -0.6274  0.5728 -0.3182
 1738SOL    HW1 5806   2.524   4.009   2.966 -2.0781 -0.4064  0.5876
 1738SOL    HW2 5807   2.467   3.935   2.847 -1.5834 -1.0199  0.7260
 1739SOL     OW 5808   2.644   2.320   2.609 -0.2936 -0.3656 -0.1149
 1739SOL    HW1 5809   2.724   2.283   2.573  0.1842  0.5295  0.0104
 1739SOL    HW2 5810   2.634   2.280   2.695  0.6492  0.3676  0.3525
 1740SOL     OW 5811   0.790   2.828   0.428  0.4733 -0.0481  0.4127
 1740SOL    HW1 5812   0.787   2.904   0.370  0.1639 -0.5466 -0.2347
 1740SOL    HW2 5813   0.724   2.847   0.495  0.2232  0.1494  0.1145
 1741SOL     OW 5814   2.188   4.495   0.355  0.4330  0.5959 -0.1288
 1741SOL    HW1 5815   2.210   4.405   0.375 -0.1928 -0.0113 -1.9444
 1741SOL    HW2 5816   2.092   4.499   0.361  0.4046  0.9469 -0.7269
 1742SOL     OW 5817   2.473   3.045   2.087  0.4953  0.8828  0.1046
 1742SOL    HW1 5818   2.499   3.128   2.126  1.6486 -0.7358  3.0822
 1742SOL    HW2 5819   2.440   2.993   2.161 -0.3092 -1.2763 -1.6654
 1743SOL     OW 5820   3.941   4.517   2.905  0.7161  0.4258  0.0105
 1743SOL    HW1 5821   3.850   4.487   2.908  0.5665  0.4438 -2.5934
 1743SOL    HW2 5822   3.992   4.441   2.934  0.0895 -1.1566 -2.7102
 1744SOL     OW 5823   1.238   1.477   0.307 -0.3085 -0.3115  0.4353
 1744SOL    HW1 5824   1.271   1.472   0.218 -0.4761 -0.0844  0.3610
 1744SOL    HW2 5825   1.201   1.565   0.315  0.3960 -0.0571  0.9706
 1745SOL     OW 5826   3.385   2.371   2.214  0.1961  0.1269 -0.1978
 1745SOL    HW1 5827   3.335   2.382   2.133  0.2037 -0.0105 -0.2221
 1745SOL    HW2 5828   3.440   2.448   2.219  1.2253 -0.5257 -1.0509
 1746SOL     OW 5829   3.227   4.958   3.079 -0.3829  0.0483  0.2117
 1746SOL    HW1 5830   3.322   4.973   3.074  0.2807 -2.5359  2.7665
 1746SOL    HW2 5831   3.212   4.878   3.029 -0.5610 -1.4200  2.4391
 1747SOL     OW 5832   4.423   1.231   2.850  0.0364 -0.5751 -0.2890
 1747SOL    HW1 5833   4.330   1.251   2.855  0.3836  0.9657  0.9573
 1747SOL    HW2 5834   4.450   1.262   2.764 -0.1941  1.0776  0.1958
 1748SOL     OW 5835   3.752   3.489   0.349 -0.0431 -0.5569  0.2143
 1748SOL    HW1 5836   3.756   3.553   0.279  1.2369 -0.7470  0.0959
 1748SOL    HW2 5837   3.659   3.487   0.375 -0.4779 -0.2462 -1.2318
 1749SOL     OW 5838   3.024   2.768   1.510 -0.4618 -0.0813 -0.3675
 1749SOL    HW1 5839   3.099   2.788   1.455  0.9870 -0.5430  1.3450
 1749SOL    HW2 5840   2.969   2.846   1.505  0.0258  0.2009 -1.7838
 1750SOL     OW 5841   2.984   3.695   1.921 -0.2876 -1.1442 -0.1623
 1750SOL    HW1 5842   2.945   3.703   1.834 -0.3967  0.3926 -0.0098
 1750SOL    HW2 5843   3.078   3.700   1.906 -0.3289 -0.1188 -0.1475
 1751SOL     OW 5844   3.992   5.232   1.137  0.1028  1.0499  0.3526
 1751SOL    HW1 5845   4.066   5.231   1.077  1.2342 -0.4175  1.7088
 1751SOL    HW2 5846   3.935   5.162   1.106 -0.8974  2.3209 -0.8238
 1752SOL     OW 5847   0.900   0.418   2.395 -1.2218 -0.2369  0.0437
 1752SOL    HW1 5848   0.964   0.356   2.430 -1.3226 -1.2922 -1.5252
 1752SOL    HW2 5849   0.888   0.483   2.465  2.2775  0.5658  0.0592
 1753SOL     OW 5850   4.689   3.380   1.982  0.2466 -0.4177  0.6190
 1753SOL    HW1 5851   4.597   3.407   1.975  0.8730  1.7361  0.1002
 1753SOL    HW2 5852   4.686   3.300   2.035 -1.7529  0.8854  2.6827
 1754SOL     OW 5853   2.697   1.781   1.594  0.2395  0.1474  0.5384
 1754SOL    HW1 5854   2.704   1.780   1.499  0.4176 -0.3506  0.5517
 1754SOL    HW2 5855   2.780   1.820   1.623 -0.0233  0.7703  0.4813
 1755SOL     OW 5856   3.386   2.820   2.792  0.2924 -0.2650  0.3948
 1755SOL    HW1 5857   3.380   2.868   2.875  1.6053  0.5698  0.0437
 1755SOL    HW2 5858   3.331   2.871   2.731  0.7194  0.1247  0.3278
 1756SOL     OW 5859   3.146   5.214   0.697  0.1787  0.2439 -0.4761
 1756SOL    HW1 5860   3.233   5.195   0.662  0.7767  1.4923  0.2770
 1756SOL    HW2 5861   3.091   5.223   0.619  0.8493  0.0801 -0.9827
 1757SOL     OW 5862   2.502   3.708   2.473  0.9427  0.3134 -0.0428
 1757SOL    HW1 5863   2.559   3.750   2.538  1.7614  1.1824 -1.2745
 1757SOL    HW2 5864   2.462   3.781   2.426  0.0410 -0.3063 -0.2461
 1758SOL     OW 5865   2.093   2.568   2.385 -0.1817  0.2821  0.7363
 1758SOL    HW1 5866   2.017   2.524   2.424 -1.4591  2.5668  0.9741
 1758SOL    HW2 5867   2.084   2.552   2.291  0.0590 -0.9476  0.9065
 1759SOL     OW 5868   1.390   4.748   2.425  0.1519  0.7614 -0.0324
 1759SOL    HW1 5869   1.389   4.785   2.513 -1.2096  0.8480 -0.0550
 1759SOL    HW2 5870   1.311   4.693   2.421  0.5243  0.2674 -0.9911
 1760SOL     OW 5871   3.683   2.263   0.172  0.7023  0.1339  0.0715
 1760SOL    HW1 5872   3.604   2.316   0.173  0.3393 -0.3124 -1.6822
 1760SOL    HW2 5873   3.709   2.261   0.080  1.9931 -0.8529  0.4278
 1761SOL     OW 5874   2.063   5.310   3.318  0.2209 -0.7677  0.3099
 1761SOL    HW1 5875   2.140   5.302   3.263 -1.1506  0.1296 -1.9003
 1761SOL    HW2 5876   2.034   5.220   3.333  1.4899 -1.0925  0.9225
 1762SOL     OW 5877   2.187   3.852   2.507  0.3223  0.0617 -0.3634
 1762SOL    HW1 5878   2.249   3.844   2.434  1.5319  1.5641  0.4349
 1762SOL    HW2 5879   2.154   3.942   2.501  1.2185  0.5702  1.4909
 1763SOL     OW 5880   2.685   2.603   1.889  0.1218  0.6029 -0.5533
 1763SOL    HW1 5881   2.676   2.595   1.794 -0.4682 -1.2120 -0.3875
 1763SOL    HW2 5882   2.779   2.613   1.903  0.1316  1.7504 -1.3640
 1764SOL     OW 5883   4.400   2.681   1.805 -0.2171  0.8879  0.1366
 1764SOL    HW1 5884   4.340   2.745   1.769 -1.0617 -0.7129 -1.4178
 1764SOL    HW2 5885   4.412   2.616   1.736  0.4923 -0.7280  1.6802
 1765SOL     OW 5886   2.203   1.743   0.000  0.0966 -0.2471 -0.0990
 1765SOL    HW1 5887   2.229   1.784   0.083 -0.7802  2.2981 -0.9817
 1765SOL    HW2 5888   2.108   1.741   0.003  0.0915 -1.3987 -0.5183
 1766SOL     OW 5889   2.589   2.042   1.827 -0.3643 -0.3123 -0.4367
 1766SOL    HW1 5890   2.671   2.016   1.869  0.3600  1.2086 -0.8316
 1766SOL    HW2 5891   2.615   2.066   1.738 -1.2009  0.3666 -0.5047
 1767SOL     OW 5892   1.228   0.781   2.763  0.1895 -0.2053  0.0967
 1767SOL    HW1 5893   1.207   0.716   2.697  1.0776  0.6344 -1.0456
 1767SOL    HW2 5894   1.183   0.751   2.842 -2.2433 -0.3896 -1.2745
 1768SOL     OW 5895   3.989   1.968   2.434 -0.4834 -0.2406  0.3615
 1768SOL    HW1 5896   4.023   1.953   2.522 -1.1161 -0.9331  0.5002
 1768SOL    HW2 5897   4.046   1.915   2.377 -0.7648 -0.6926  0.4915
 1769SOL     OW 5898   0.765   2.242   1.264 -0.0706  0.1613  0.1686
 1769SOL    HW1 5899   0.680   2.220   1.225  0.3365 -1.9558  0.3323
 1769SOL    HW2 5900   0.773   2.182   1.339  2.3086 -1.0124 -0.9170
 1770SOL     OW 5901   4.565   2.813   2.811  0.3067 -0.1716 -0.1102
 1770SOL    HW1 5902   4.501   2.866   2.763  1.1148 -0.8236 -2.0076
 1770SOL    HW2 5903   4.580   2.861   2.893 -3.9987 -0.9368  1.3697
 1771SOL     OW 5904   2.982   1.693   2.430 -0.1192  0.0794  0.3556
 1771SOL    HW1 5905   2.918   1.629   2.400 -1.1498  1.1148  0.2484
 1771SOL    HW2 5906   2.981   1.761   2.362  0.6669  0.3980  0.6479
 1772SOL     OW 5907   2.570   4.235   3.444  0.1704 -0.3662  0.2788
 1772SOL    HW1 5908   2.519   4.159   3.415  2.2251 -1.1210 -1.5839
 1772SOL    HW2 5909   2.508   4.286   3.497 -2.0107 -2.0197 -0.5216
 1773SOL     OW 5910   3.080   1.597   2.943 -0.0264  0.1165 -0.0001
 1773SOL    HW1 5911   2.994   1.568   2.972 -0.1872  1.8392  1.3724
 1773SOL    HW2 5912   3.063   1.640   2.859 -0.3663 -0.2946 -0.1466
 1774SOL     OW 5913   2.090   2.942   1.779  0.4663 -0.0514  0.2520
 1774SOL    HW1 5914   2.062   2.947   1.687 -2.2956 -1.1374  0.9552
 1774SOL    HW2 5915   2.186   2.937   1.773  0.3601 -0.9508 -2.6185
 1775SOL     OW 5916   1.329   2.187   2.556 -0.7474  0.4315 -0.6952
 1775SOL    HW1 5917   1.385   2.255   2.517  0.8682 -0.9573 -0.9010
 1775SOL    HW2 5918   1.240   2.222   2.548 -0.0950  1.9205 -2.0175
 1776SOL     OW 5919   2.853   2.438   0.762  0.3599 -0.3005  0.5024
 1776SOL    HW1 5920   2.907   2.359   0.759  0.8280  0.0305  0.1468
 1776SOL    HW2 5921   2.785   2.418   0.827 -0.0373 -1.3196 -0.2028
 1777SOL     OW 5922   2.786   4.647   1.608 -0.5682 -0.7608  0.3972
 1777SOL    HW1 5923   2.818   4.733   1.580 -0.5844 -0.9744 -0.3095
 1777SOL    HW2 5924   2.734   4.665   1.686  1.7036 -0.4705  1.9278
 1778SOL     OW 5925   3.085   2.540   0.495  0.2411  0.0139  0.6592
 1778SOL    HW1 5926   3.064   2.550   0.588 -0.8408 -1.1926  0.5760
 1778SOL    HW2 5927   3.064   2.449   0.476  0.3842  0.2688 -0.7932
 1779SOL     OW 5928   1.776   5.149   2.199  0.2399 -0.1339  0.5098
 1779SOL    HW1 5929   1.691   5.194   2.206 -0.9781 -2.2580  0.1363
 1779SOL    HW2 5930   1.834   5.214   2.161 -1.2457  1.3607  0.6594
 1780SOL     OW 5931   3.454   2.410   1.560 -0.2227 -0.1895  0.2594
 1780SOL    HW1 5932   3.376   2.451   1.522 -0.1287  0.6267  0.9091
 1780SOL    HW2 5933   3.494   2.480   1.613  0.3924 -0.8919  0.7366
 1781SOL     OW 5934   4.497   1.732   1.978  0.1347 -0.1944  0.7439
 1781SOL    HW1 5935   4.571   1.766   1.927  0.9295  0.6409  2.3644
 1781SOL    HW2 5936   4.458   1.810   2.017 -0.7438 -0.7688  1.0403
 1782SOL     OW 5937   2.942   2.703   1.851 -0.0898 -0.0959  0.3999
 1782SOL    HW1 5938   2.927   2.797   1.842  1.3970  0.3397  1.9220
 1782SOL    HW2 5939   2.997   2.679   1.777 -0.4696  0.2228  0.0140
 1783SOL     OW 5940   3.363   1.971   0.637 -0.2074  0.0940 -0.7024
 1783SOL    HW1 5941   3.311   1.927   0.569  0.5539 -0.0872 -1.1855
 1783SOL    HW2 5942   3.452   1.971   0.602  0.2072 -0.0364  0.3233
 1784SOL     OW 5943   4.367   3.425   2.858  0.1937  0.4824 -0.0236
 1784SOL    HW1 5944   4.414   3.343   2.870  0.3748  0.5408 -0.3299
 1784SOL    HW2 5945   4.428   3.492   2.888  0.7521  0.6532 -1.4895
 1785SOL     OW 5946   3.615   3.983   0.878 -0.1337 -0.3219 -1.1637
 1785SOL    HW1 5947   3.634   4.056   0.936 -2.7696 -0.2968 -0.1834
 1785SOL    HW2 5948   3.595   4.024   0.794 -2.1276  0.2348 -0.4841
 1786SOL     OW 5949   2.366   2.535   3.267  0.1247  0.2640 -0.8304
 1786SOL    HW1 5950   2.278   2.572   3.261  0.1768  0.3431 -1.1011
 1786SOL    HW2 5951   2.424   2.605   3.237  0.2526  0.0893 -0.9923
 1787SOL     OW 5952   2.106   4.387   2.639 -0.6572  0.4543 -0.6766
 1787SOL    HW1 5953   2.037   4.337   2.595  0.5612  0.1747 -2.3457
 1787SOL    HW2 5954   2.082   4.478   2.626 -2.4096  0.4225  1.6065
 1788SOL     OW 5955   2.717   3.105   1.983 -0.2655 -0.1008  0.1527
 1788SOL    HW1 5956   2.636   3.069   2.019 -0.7623  0.4851 -0.3587
 1788SOL    HW2 5957   2.709   3.200   1.995  0.5750 -0.0718  0.5591
 1789SOL     OW 5958   3.924   3.916   2.677 -0.0502 -0.3877 -0.0835
 1789SOL    HW1 5959   3.944   3.909   2.771 -0.0349  0.2946 -0.0345
 1789SOL    HW2 5960   3.967   3.839   2.638 -0.2477 -0.8007  0.4969
 1790SOL     OW 5961   3.117   2.259   0.397  0.6217 -0.6546 -0.0018
 1790SOL    HW1 5962   3.061   2.282   0.323  0.6349 -1.5428 -0.3035
 1790SOL    HW2 5963   3.161   2.178   0.369 -1.1736 -2.3871  1.8743
 1791SOL     OW 5964   3.037   4.326   2.467 -0.5861 -0.4252  0.3299
 1791SOL    HW1 5965   2.992   4.278   2.397  0.6940 -1.2954  0.0783
 1791SOL    HW2 5966   3.094   4.262   2.508  1.8688  1.0225 -0.6171
 1792SOL     OW 5967   2.211   1.695   2.109 -0.5123  0.3021 -0.3634
 1792SOL    HW1 5968   2.254   1.739   2.035  0.3932 -0.5848 -0.3716
 1792SOL    HW2 5969   2.229   1.751   2.184  1.0420 -0.2588 -0.2849
 1793SOL     OW 5970   1.678   2.644   2.786  0.0253  0.1788 -0.8129
 1793SOL    HW1 5971   1.741   2.574   2.800  0.2043  0.6781  1.0909
 1793SOL    HW2 5972   1.728   2.714   2.743  0.9776  0.8002  1.2050
 1794SOL     OW 5973   3.107   3.075   3.199  0.1704 -0.0852  0.1744
 1794SOL    HW1 5974   3.193   3.114   3.183  0.7304 -1.3137  0.0526
 1794SOL    HW2 5975   3.065   3.073   3.113  0.4212 -0.4075  0.0609
 1795SOL     OW 5976   4.238   0.657   2.992 -0.5862 -0.0803  0.5994
 1795SOL    HW1 5977   4.183   0.677   3.067 -0.1385  2.0255  0.4129
 1795SOL    HW2 5978   4.324   0.690   3.016 -0.2201 -0.2233 -0.4721
 1796SOL     OW 5979   2.920   3.660   3.469 -0.0687 -0.4176 -0.6414
 1796SOL    HW1 5980   2.881   3.618   3.392  0.9982 -1.3023 -0.7188
 1796SOL    HW2 5981   2.997   3.607   3.489 -0.1049  0.0453  0.8047
 1797SOL     OW 5982   2.071   2.593   0.395  0.4749 -0.0254 -0.4206
 1797SOL    HW1 5983   2.147   2.649   0.404 -0.8837  1.7572  0.6554
 1797SOL    HW2 5984   2.006   2.647   0.350 -0.4538 -1.1968 -0.5427
 1798SOL     OW 5985   1.793   4.267   1.970 -0.3515 -0.2750  0.1771
 1798SOL    HW1 5986   1.882   4.300   1.957 -0.3013 -0.8522 -0.9865
 1798SOL    HW2 5987   1.739   4.316   1.908 -0.7009 -0.5383  0.2665
 1799SOL     OW 5988   2.832   0.090   0.958 -0.5248 -0.1453 -0.2119
 1799SOL    HW1 5989   2.775   0.041   1.017  0.0893 -0.8806 -0.2199
 1799SOL    HW2 5990   2.852   0.029   0.887 -0.3137  0.3433 -0.5790
 1800SOL     OW 5991   0.669   3.222   0.543 -0.4071 -0.4946 -0.4295
 1800SOL    HW1 5992   0.724   3.297   0.565 -0.9444 -0.5693  1.3241
 1800SOL    HW2 5993   0.600   3.259   0.488 -0.9520  0.4299  0.8206
 1801SOL     OW 5994   3.630   3.030   0.272 -0.6455 -0.6970 -0.0385
 1801SOL    HW1 5995   3.619   3.088   0.196  1.0032 -0.4732 -0.1381
 1801SOL    HW2 5996   3.562   3.058   0.333 -0.1140  1.1679 -0.2270
 1802SOL     OW 5997   2.242   0.383   1.744 -0.1925 -0.2834 -0.2769
 1802SOL    HW1 5998   2.296   0.309   1.771  0.3390 -0.1711 -1.0116
 1802SOL    HW2 5999   2.304   0.446   1.708 -0.6353  0.5572  0.4143
 1803SOL     OW 6000   2.325   4.890   2.891  0.2228  0.0217  0.4182
 1803SOL    HW1 6001   2.384   4.965   2.897 -0.0425  0.2183  0.5495
 1803SOL    HW2 6002   2.384   4.814   2.886  0.5231  0.3184 -0.9838
 1804SOL     OW 6003   0.583   3.177   1.677 -0.4595  0.0650  0.2420
 1804SOL    HW1 6004   0.646   3.190   1.748  1.5477 -0.7267 -1.2702
 1804SOL    HW2 6005   0.565   3.083   1.678 -0.6836  0.1019 -0.0665
 1805SOL     OW 6006   2.585   2.379   2.015  0.3665  0.2184  0.0320
 1805SOL    HW1 6007   2.598   2.470   1.987  0.4824 -0.1994 -1.3394
 1805SOL    HW2 6008   2.669   2.337   1.998 -0.2385 -0.5751 -1.1385
 1806SOL     OW 6009   7.171   2.654   1.194  0.5478  0.0315  0.2307
 1806SOL    HW1 6010   7.199   2.586   1.132  0.1407 -1.0722  1.2085
 1806SOL    HW2 6011   7.248   2.710   1.204  0.5433  0.4080 -1.4498
 1807SOL     OW 6012   4.794   1.633   0.557  0.2447 -0.2492  0.2305
 1807SOL    HW1 6013   4.862   1.571   0.531 -0.9054 -1.4623  0.0835
 1807SOL    HW2 6014   4.817   1.657   0.647  0.4398 -1.2253  0.4438
 1808SOL     OW 6015   4.804   3.349   0.364 -1.2276  0.6487  0.2775
 1808SOL    HW1 6016   4.882   3.353   0.420 -1.1924  1.0899  0.2033
 1808SOL    HW2 6017   4.835   3.307   0.283 -1.3046 -0.0879  0.6222
 1809SOL     OW 6018   4.749   2.644   2.686 -0.0313  0.0959  0.0589
 1809SOL    HW1 6019   4.771   2.615   2.775 -1.8717 -0.1735  0.4551
 1809SOL    HW2 6020   4.674   2.702   2.698 -0.8908 -0.6828 -1.4109
 1810SOL     OW 6021   3.671   1.831   0.803 -0.4431 -0.3599 -0.6910
 1810SOL    HW1 6022   3.590   1.853   0.849  0.0956 -0.7004  0.4647
 1810SOL    HW2 6023   3.737   1.888   0.843  0.4861 -2.2293  0.6011
 1811SOL     OW 6024   1.967   3.763   3.487  0.8635 -0.4111  0.5049
 1811SOL    HW1 6025   1.874   3.740   3.496  0.8133 -0.0579  0.9189
 1811SOL    HW2 6026   1.975   3.795   3.397  0.2142  1.1793  0.9697
 1812SOL     OW 6027   0.511   2.368   0.882  0.0474 -0.3397 -0.3024
 1812SOL    HW1 6028   0.472   2.286   0.854 -0.0160 -0.0921 -0.9613
 1812SOL    HW2 6029   0.437   2.428   0.892  0.1443 -0.2010 -0.4063
 1813SOL     OW 6030   4.376   1.615   0.527 -0.2806 -0.0399 -0.0279
 1813SOL    HW1 6031   4.378   1.632   0.621  3.3582 -1.4589  0.3127
 1813SOL    HW2 6032   4.438   1.677   0.489 -0.2700 -0.7386 -1.2113
 1814SOL     OW 6033   1.328   4.077   2.219  0.7847  0.1410 -0.5266
 1814SOL    HW1 6034   1.356   4.145   2.158  1.4425 -0.9334 -1.4616
 1814SOL    HW2 6035   1.381   4.001   2.197 -0.7236 -1.0340 -0.2853
 1815SOL     OW 6036   2.873   3.775   3.072 -0.4366  0.7635 -0.0466
 1815SOL    HW1 6037   2.932   3.734   3.010  1.3558  0.5430  1.6865
 1815SOL    HW2 6038   2.791   3.725   3.065  0.0115  0.1919 -1.5331
 1816SOL     OW 6039   1.166   4.673   1.948  0.2872 -0.1875  0.4212
 1816SOL    HW1 6040   1.260   4.673   1.931  0.4931 -0.5004  1.5074
 1816SOL    HW2 6041   1.132   4.604   1.891  0.6454  0.1984 -0.2762
 1817SOL     OW 6042   2.820   3.269   2.631  0.7491  0.1278 -0.4669
 1817SOL    HW1 6043   2.857   3.249   2.717  0.5300  2.2658  0.1929
 1817SOL    HW2 6044   2.725   3.271   2.645  0.7756  3.1063 -0.0071
 1818SOL     OW 6045   2.692   2.659   3.373  0.3506  0.3976 -0.3756
 1818SOL    HW1 6046   2.692   2.752   3.393  2.0523  0.3352  0.0172
 1818SOL    HW2 6047   2.629   2.650   3.302 -0.0322  1.8011 -0.2376
 1819SOL     OW 6048   2.932   3.104   2.305  0.0833 -0.0527  0.4184
 1819SOL    HW1 6049   2.889   3.137   2.383 -1.2067  2.7915 -1.3413
 1819SOL    HW2 6050   2.892   3.019   2.289 -0.9456  0.1352  1.8382
 1820SOL     OW 6051   3.256   0.786   3.280 -0.9044 -0.0409  0.1019
 1820SOL    HW1 6052   3.188   0.814   3.219 -0.0513  2.1965  0.0872
 1820SOL    HW2 6053   3.338   0.819   3.243  0.2886 -2.8181  0.0338
 1821SOL     OW 6054   2.340   3.994   2.721  0.2729  0.1092  0.4014
 1821SOL    HW1 6055   2.341   4.090   2.720 -1.4470  0.2058  1.7419
 1821SOL    HW2 6056   2.254   3.971   2.685  0.3869 -0.8869  0.7387
 1822SOL     OW 6057   0.218   1.870   0.553  0.6618 -0.1298  0.2786
 1822SOL    HW1 6058   0.176   1.953   0.530 -0.2212 -0.4815  0.6060
 1822SOL    HW2 6059   0.287   1.860   0.487 -0.3386  0.0099 -0.8202
 1823SOL     OW 6060   2.762   1.735   3.118  0.0061  0.6422  0.5010
 1823SOL    HW1 6061   2.717   1.734   3.203 -1.4539  0.4752 -0.2374
 1823SOL    HW2 6062   2.748   1.823   3.084  1.8388  1.1860  1.0224
 1824SOL     OW 6063   2.476   1.192   1.155 -0.1963 -0.0755  0.5851
 1824SOL    HW1 6064   2.408   1.133   1.190 -0.0332 -1.2454 -0.9506
 1824SOL    HW2 6065   2.429   1.248   1.093  0.4093 -2.1515 -1.9545
 1825SOL     OW 6066   2.887   4.723   2.420  0.5758  0.8771 -0.0045
 1825SOL    HW1 6067   2.940   4.779   2.365 -1.4453  0.9601 -2.0136
 1825SOL    HW2 6068   2.799   4.759   2.413  0.0502  0.2830  2.5570
 1826SOL     OW 6069   3.220   3.325   0.225  0.0048  0.7277  0.2833
 1826SOL    HW1 6070   3.184   3.238   0.243  2.6160 -0.7157 -1.0236
 1826SOL    HW2 6071   3.205   3.338   0.132 -1.9644  2.5648  0.7713
 1827SOL     OW 6072   3.317   1.442   1.943  0.5707 -0.1992 -0.1228
 1827SOL    HW1 6073   3.404   1.435   1.983  1.2633  0.5406 -1.4303
 1827SOL    HW2 6074   3.328   1.403   1.856 -0.8175 -1.4975  0.2474
 1828SOL     OW 6075   3.369   4.309   2.993 -0.3735  0.4159  0.1094
 1828SOL    HW1 6076   3.440   4.246   2.984  0.4469  1.3120  0.0893
 1828SOL    HW2 6077   3.362   4.351   2.907  0.2668  1.5449  0.5889
 1829SOL     OW 6078   4.819   4.036   0.525  0.2640  0.2163  0.5459
 1829SOL    HW1 6079   4.811   3.947   0.559 -0.7398 -0.6026 -1.7058
 1829SOL    HW2 6080   4.858   4.026   0.438 -1.2871  1.7974 -0.3984
 1830SOL     OW 6081   2.791   4.185   1.916  0.4303 -0.0165  0.1201
 1830SOL    HW1 6082   2.787   4.126   1.992  0.3211 -1.6196 -1.0898
 1830SOL    HW2 6083   2.799   4.127   1.841 -0.8538  1.4596 -1.2309
 1831SOL     OW 6084   4.318   1.194   1.791  0.1418 -0.4087  0.1351
 1831SOL    HW1 6085   4.402   1.239   1.780  0.0333 -0.1700  0.2853
 1831SOL    HW2 6086   4.254   1.251   1.747 -0.0399 -0.2659  0.5800
 1832SOL     OW 6087   0.234   4.231   0.489  0.3542  0.2431  0.0263
 1832SOL    HW1 6088   0.203   4.162   0.548  1.4781  1.9835  2.8933
 1832SOL    HW2 6089   0.324   4.245   0.516  0.3820  2.2785 -1.0101
 1833SOL     OW 6090   3.683   3.294   2.657 -0.2351  0.1191 -0.0355
 1833SOL    HW1 6091   3.653   3.209   2.623 -0.8053 -0.0425  0.8401
 1833SOL    HW2 6092   3.762   3.273   2.707 -1.8635 -0.3765  2.5167
 1834SOL     OW 6093   3.276   2.927   0.274 -0.1365 -0.2928  0.5212
 1834SOL    HW1 6094   3.226   2.845   0.286  0.4701 -0.7332  0.0823
 1834SOL    HW2 6095   3.348   2.920   0.337 -1.4296  1.0225  2.2340
 1835SOL     OW 6096   3.373   1.856   1.807 -0.3245 -0.0876  0.0782
 1835SOL    HW1 6097   3.396   1.917   1.737 -0.5896 -0.3704 -0.2569
 1835SOL    HW2 6098   3.457   1.826   1.842 -0.1797  1.0604  0.7776
 1836SOL     OW 6099   3.859   0.997   3.285  0.1876  0.3375  0.0356
 1836SOL    HW1 6100   3.859   0.962   3.374  0.6937  1.5846  0.5547
 1836SOL    HW2 6101   3.952   1.014   3.266  0.1340 -0.2835 -0.8997
 1837SOL     OW 6102   3.919   0.501   3.469  0.7734  0.3807 -0.1311
 1837SOL    HW1 6103   3.881   0.558   3.537 -0.3149 -1.5219  0.9489
 1837SOL    HW2 6104   3.919   0.414   3.509  0.2873 -0.7790 -2.5160
 1838SOL     OW 6105   1.886   2.304   1.438 -0.4544  0.0777  0.3010
 1838SOL    HW1 6106   1.898   2.278   1.530 -2.1781 -2.0807  0.0092
 1838SOL    HW2 6107   1.853   2.393   1.442 -0.2021  0.1264  1.7672
 1839SOL     OW 6108   3.835   5.433   3.236 -0.1481  0.1128 -0.4558
 1839SOL    HW1 6109   3.839   5.501   3.169 -0.2692 -0.0227 -0.6012
 1839SOL    HW2 6110   3.750   5.392   3.223  0.1998 -0.5047 -0.7948
 1840SOL     OW 6111   4.403   1.693   0.802  0.2155  0.4748 -0.2448
 1840SOL    HW1 6112   4.385   1.786   0.819  1.1930  0.5044  0.7418
 1840SOL    HW2 6113   4.351   1.647   0.868 -0.2540  0.3194 -0.7231
 1841SOL     OW 6114   3.194   1.670   0.187  0.1472 -0.7647 -0.5588
 1841SOL    HW1 6115   3.287   1.694   0.196  0.5374 -1.9223 -1.3723
 1841SOL    HW2 6116   3.158   1.736   0.128  0.7409 -1.0206 -1.2088
 1842SOL     OW 6117   6.643   2.991   1.363  0.1586 -0.3111  0.6091
 1842SOL    HW1 6118   6.594   3.069   1.340  1.9554  1.6141  2.8178
 1842SOL    HW2 6119   6.716   2.989   1.300  1.0207  0.8032  1.5211
 1843SOL     OW 6120   3.396   2.909   2.036 -0.2599  0.5274  0.5058
 1843SOL    HW1 6121   3.326   2.972   2.020  0.5519  1.7592  1.5578
 1843SOL    HW2 6122   3.451   2.913   1.958 -0.4064  0.8596  0.4183
 1844SOL     OW 6123   2.336   3.379   1.958 -0.1853  0.0126  0.5555
 1844SOL    HW1 6124   2.399   3.370   2.029  0.2752 -0.0481  0.1471
 1844SOL    HW2 6125   2.348   3.469   1.927  0.8418 -0.4802 -0.5651
 1845SOL     OW 6126   2.828   2.384   3.209  0.2759 -0.1974  0.4674
 1845SOL    HW1 6127   2.738   2.389   3.177  0.3884 -0.9582 -0.0038
 1845SOL    HW2 6128   2.877   2.348   3.135  0.6386 -1.5233  1.3121
 1846SOL     OW 6129   1.333   2.768   1.487 -0.4820 -0.3089 -0.2913
 1846SOL    HW1 6130   1.334   2.824   1.565 -0.5180 -0.0672 -0.4622
 1846SOL    HW2 6131   1.245   2.779   1.451  0.2123  1.3380 -1.6180
 1847SOL     OW 6132   2.632   2.779   0.547 -0.1360  0.0928  0.0062
 1847SOL    HW1 6133   2.587   2.863   0.548  0.7956  0.6410 -1.4219
 1847SOL    HW2 6134   2.701   2.788   0.613  0.7460  0.9360 -0.9874
 1848SOL     OW 6135   2.892   4.842   2.108  0.8743  0.2163 -0.4681
 1848SOL    HW1 6136   2.798   4.858   2.119  0.1612 -2.4011 -1.9966
 1848SOL    HW2 6137   2.934   4.911   2.160 -1.8701  0.9938  0.9066
 1849SOL     OW 6138   1.400   4.349   3.021 -0.1216 -0.4306 -0.3127
 1849SOL    HW1 6139   1.492   4.373   3.034 -0.3742 -0.2397  1.3299
 1849SOL    HW2 6140   1.385   4.278   3.083 -1.3084  0.1250  0.0508
 1850SOL     OW 6141   2.631   3.781   2.707  0.5951  0.7965 -0.5637
 1850SOL    HW1 6142   2.595   3.839   2.775 -0.0714 -2.1634  1.8094
 1850SOL    HW2 6143   2.724   3.777   2.727  0.3424 -0.3679  0.5125
 1851SOL     OW 6144   7.380   3.738   0.042 -0.1872  0.3482  0.0002
 1851SOL    HW1 6145   7.426   3.758   0.124 -0.2204 -2.5879  0.8275
 1851SOL    HW2 6146   7.417   3.656   0.012 -2.1444 -0.0927 -1.4310
 1852SOL     OW 6147   3.693   2.717   0.268 -0.0636  0.1307  0.7646
 1852SOL    HW1 6148   3.657   2.804   0.285 -2.0344 -0.4306 -0.2517
 1852SOL    HW2 6149   3.781   2.720   0.306  0.3696  2.9218 -0.1977
 1853SOL     OW 6150   1.570   2.866   3.068 -0.4685  0.1851 -0.4750
 1853SOL    HW1 6151   1.477   2.846   3.082 -0.3632  0.0565  0.0322
 1853SOL    HW2 6152   1.573   2.903   2.980 -1.2695  1.9107  0.1853
 1854SOL     OW 6153   3.500   2.102   2.693  0.0321  0.0270  0.3455
 1854SOL    HW1 6154   3.526   2.016   2.660  1.3058  0.2983  0.5939
 1854SOL    HW2 6155   3.497   2.158   2.615 -0.8211 -0.2380  0.1806
 1855SOL     OW 6156   2.177   2.169   2.322 -0.0893  0.5769  0.4856
 1855SOL    HW1 6157   2.149   2.179   2.231 -0.3720  0.5673  0.5705
 1855SOL    HW2 6158   2.272   2.180   2.319 -0.0812  0.4460  0.1696
 1856SOL     OW 6159   2.404   4.982   0.120  0.1410  0.0081  0.0054
 1856SOL    HW1 6160   2.372   4.916   0.058 -0.4618 -0.9519  1.2939
 1856SOL    HW2 6161   2.456   4.932   0.183  1.5472  1.1063 -0.2323
 1857SOL     OW 6162   2.748   4.088   0.789  0.1066 -0.4033  0.4713
 1857SOL    HW1 6163   2.834   4.127   0.808 -0.3460  0.1665  1.4337
 1857SOL    HW2 6164   2.686   4.159   0.804 -0.4828 -0.5236 -1.1915
 1858SOL     OW 6165   3.519   2.303   3.102 -0.2685 -0.2628  0.8359
 1858SOL    HW1 6166   3.581   2.261   3.041 -0.6212  0.1034  0.2080
 1858SOL    HW2 6167   3.525   2.251   3.182  2.0422  0.6852  1.3819
 1859SOL     OW 6168   3.291   0.930   0.689  0.0777 -1.1909 -0.3224
 1859SOL    HW1 6169   3.282   0.986   0.612  3.0105 -0.0255  0.0488
 1859SOL    HW2 6170   3.238   0.972   0.756  0.2746 -0.2406 -0.7513
 1860SOL     OW 6171   3.643   2.212   1.523 -0.1028 -0.0943 -0.1065
 1860SOL    HW1 6172   3.678   2.264   1.595  1.3296  0.7878 -1.3626
 1860SOL    HW2 6173   3.559   2.251   1.503 -0.1565  0.1456  0.5836
 1861SOL     OW 6174   0.708   3.373   1.389 -0.4196 -0.0337  0.3138
 1861SOL    HW1 6175   0.735   3.300   1.334 -0.3743 -1.3582  2.0243
 1861SOL    HW2 6176   0.781   3.387   1.449 -0.0093  2.1081 -0.5933
 1862SOL     OW 6177   3.135   2.704   2.522  0.1293  0.6908  0.3854
 1862SOL    HW1 6178   3.095   2.791   2.513 -0.6149  0.4769  1.3849
 1862SOL    HW2 6179   3.080   2.647   2.468  0.0549  0.6816  0.4700
 1863SOL     OW 6180   0.908   2.720   2.989  0.0010 -0.2227  0.3446
 1863SOL    HW1 6181   0.933   2.665   3.064 -1.3121  0.0046  0.9719
 1863SOL    HW2 6182   0.900   2.808   3.026  2.5982  0.5862 -0.7511
 1864SOL     OW 6183   2.496   3.935   0.168 -0.1702  0.0081 -0.0749
 1864SOL    HW1 6184   2.560   3.886   0.116 -0.4661 -0.5683  0.0965
 1864SOL    HW2 6185   2.420   3.942   0.111  0.0156  0.6494 -0.2593
 1865SOL     OW 6186   2.350   2.425   1.820 -0.3544  0.3932 -0.1402
 1865SOL    HW1 6187   2.323   2.366   1.890 -2.8801 -0.3807 -1.6176
 1865SOL    HW2 6188   2.434   2.391   1.791 -1.1573 -1.7659 -0.1126
 1866SOL     OW 6189   3.586   3.733   2.432  0.2813 -0.1124 -0.8241
 1866SOL    HW1 6190   3.550   3.688   2.509  0.2336  1.9982  0.4780
 1866SOL    HW2 6191   3.632   3.665   2.383 -1.3002 -1.9105  0.0527
 1867SOL     OW 6192   3.060   3.028   2.914 -0.7902 -0.2760  0.3047
 1867SOL    HW1 6193   2.971   3.042   2.879 -0.7687  0.3457  0.4800
 1867SOL    HW2 6194   3.064   2.935   2.933 -1.7331 -0.1642  1.1505
 1868SOL     OW 6195   2.072   3.154   0.268  1.1161 -0.0379  0.3146
 1868SOL    HW1 6196   2.129   3.079   0.249  1.2209  0.2776 -0.6740
 1868SOL    HW2 6197   1.993   3.115   0.306  1.1821 -0.6492 -0.1613
 1869SOL     OW 6198   3.319   3.042   3.516  0.2198 -0.2302 -0.0154
 1869SOL    HW1 6199   3.246   3.103   3.512  1.0627  0.8373  0.2097
 1869SOL    HW2 6200   3.310   3.000   3.602 -1.9131 -2.5114 -1.2149
 1870SOL     OW 6201   3.698   2.767   2.551  0.0155  0.6574  0.3945
 1870SOL    HW1 6202   3.659   2.716   2.480  0.5167  1.7566 -0.7117
 1870SOL    HW2 6203   3.789   2.737   2.555  0.1343  0.9893  0.1937
 1871SOL     OW 6204   1.717   4.129   3.354 -0.0904  0.6720  0.1614
 1871SOL    HW1 6205   1.714   4.186   3.277  0.2656  0.0590 -0.3116
 1871SOL    HW2 6206   1.802   4.146   3.393  0.0588  0.3960 -0.0386
 1872SOL     OW 6207   4.300   2.828   3.349 -0.8766  0.6163  0.0920
 1872SOL    HW1 6208   4.240   2.754   3.345 -0.2863  0.0906  0.6464
 1872SOL    HW2 6209   4.247   2.903   3.325 -1.5535  0.0522 -0.2207
 1873SOL     OW 6210   1.069   1.150   0.899  0.5746  0.2306 -0.1955
 1873SOL    HW1 6211   1.086   1.231   0.852 -1.2733  0.5301 -0.4183
 1873SOL    HW2 6212   1.025   1.093   0.835 -1.8586  0.5997  1.0262
 1874SOL     OW 6213   4.107   2.928   2.621 -0.3215 -0.6877  0.3981
 1874SOL    HW1 6214   4.051   2.873   2.566  0.1630 -0.3900 -0.4184
 1874SOL    HW2 6215   4.090   2.898   2.710  0.8936 -3.0887 -0.0844
 1875SOL     OW 6216   3.570   5.335   3.293 -0.0500 -0.3255 -0.0449
 1875SOL    HW1 6217   3.501   5.324   3.227 -0.0398  0.4960 -0.2068
 1875SOL    HW2 6218   3.543   5.279   3.366 -0.3218 -0.8523 -0.5432
 1876SOL     OW 6219   5.024   2.885   0.068  0.8730  0.1576  0.4904
 1876SOL    HW1 6220   5.052   2.970   0.034  1.3357 -0.0295  0.3973
 1876SOL    HW2 6221   4.929   2.893   0.079  1.1086  1.2345  2.0353
 1877SOL     OW 6222   2.533   4.358   2.202  0.2353  0.5449 -0.3210
 1877SOL    HW1 6223   2.493   4.441   2.230 -2.6142 -0.2458 -1.6609
 1877SOL    HW2 6224   2.616   4.383   2.162 -0.0079  2.6065  0.3435
 1878SOL     OW 6225   0.859   4.005   3.209  0.0451  0.1296  0.1691
 1878SOL    HW1 6226   0.916   3.944   3.256 -0.9645 -1.4190 -0.5317
 1878SOL    HW2 6227   0.863   4.086   3.260  0.3840 -0.9266  1.8999
 1879SOL     OW 6228   2.383   2.750   1.961  0.0490  0.0506 -0.0446
 1879SOL    HW1 6229   2.409   2.816   1.896 -0.1622  0.1723 -0.0079
 1879SOL    HW2 6230   2.428   2.670   1.934 -2.6786 -0.8466 -2.3849
 1880SOL     OW 6231   2.829   2.846   2.285  0.0907 -0.0210 -0.4549
 1880SOL    HW1 6232   2.747   2.810   2.250 -0.1575 -0.7183  0.7836
 1880SOL    HW2 6233   2.895   2.780   2.264  0.8111  1.4573 -3.3019
 1881SOL     OW 6234   4.015   2.140   3.335 -0.1170  0.0759 -0.1396
 1881SOL    HW1 6235   4.043   2.094   3.256 -0.3440 -2.9427  1.3934
 1881SOL    HW2 6236   3.974   2.073   3.389 -1.6075  2.3783  1.8256
 1882SOL     OW 6237   1.791   4.761   1.399  0.1301  0.7289  0.4324
 1882SOL    HW1 6238   1.713   4.770   1.454 -1.6559 -0.3483 -1.7524
 1882SOL    HW2 6239   1.798   4.667   1.384  0.0432  1.0263 -1.7772
 1883SOL     OW 6240   3.452   4.323   2.504  0.0912  0.3056  0.1113
 1883SOL    HW1 6241   3.543   4.299   2.526 -0.3257 -0.7604  0.7481
 1883SOL    HW2 6242   3.410   4.240   2.482 -0.2954  1.0031 -1.9297
 1884SOL     OW 6243   2.149   5.311   0.442 -0.7359 -0.3618  0.2386
 1884SOL    HW1 6244   2.178   5.239   0.387  0.9379  0.5730 -0.1779
 1884SOL    HW2 6245   2.135   5.384   0.380  2.6768  1.1740  1.0572
 1885SOL     OW 6246   3.069   3.070   0.287 -0.3193 -0.5726  0.3675
 1885SOL    HW1 6247   3.152   3.022   0.281  0.1907  0.2648  0.6684
 1885SOL    HW2 6248   3.019   3.040   0.211  0.5145 -0.5873 -0.1819
 1886SOL     OW 6249   2.901   4.812   2.920  0.0467  0.0450  0.2604
 1886SOL    HW1 6250   2.986   4.836   2.885 -0.9342  1.6263 -1.2068
 1886SOL    HW2 6251   2.905   4.717   2.933  0.5555 -0.7400 -4.1975
 1887SOL     OW 6252   1.974   4.491   1.101  0.5360  0.2152 -0.0425
 1887SOL    HW1 6253   2.014   4.501   1.188 -0.3565  0.3069  0.3660
 1887SOL    HW2 6254   1.899   4.551   1.102 -0.6662 -1.2334 -0.1343
 1888SOL     OW 6255   2.918   4.538   1.261  0.2844  0.0397 -0.2357
 1888SOL    HW1 6256   2.916   4.466   1.324 -1.3265  0.2181 -0.0473
 1888SOL    HW2 6257   2.957   4.611   1.309 -3.4684  1.0800  1.6920
 1889SOL     OW 6258   4.426   0.397   2.527 -0.1283 -0.5167 -0.1037
 1889SOL    HW1 6259   4.356   0.434   2.581  0.3579 -1.7426  1.4324
 1889SOL    HW2 6260   4.501   0.389   2.587  1.1013  0.0128 -1.5018
 1890SOL     OW 6261   0.388   3.120   2.045 -0.0106 -0.3474 -0.1327
 1890SOL    HW1 6262   0.482   3.135   2.049 -0.1992  1.0015 -0.2693
 1890SOL    HW2 6263   0.373   3.045   2.104  1.1189 -0.5203 -0.0423
 1891SOL     OW 6264   0.944   4.624   1.517 -0.2055  0.2791  0.3700
 1891SOL    HW1 6265   1.022   4.628   1.573 -0.8589 -1.4812  1.5106
 1891SOL    HW2 6266   0.966   4.678   1.441  1.4404  1.2346  1.4573
 1892SOL     OW 6267   2.604   0.877   2.651  0.8455 -0.1985 -0.5691
 1892SOL    HW1 6268   2.588   0.949   2.590  1.9974 -0.5904 -1.3422
 1892SOL    HW2 6269   2.678   0.906   2.704  0.0411  0.0163  0.4952
 1893SOL     OW 6270   4.624   4.266   1.526  0.5962 -0.2572  0.1489
 1893SOL    HW1 6271   4.611   4.294   1.616  0.5981  1.0563 -0.2346
 1893SOL    HW2 6272   4.617   4.347   1.475  0.1203 -1.0545 -1.0763
 1894SOL     OW 6273   0.735   0.157   1.867 -0.9144 -0.3912 -0.3945
 1894SOL    HW1 6274   0.807   0.198   1.819 -0.9627  1.5142  1.0180
 1894SOL    HW2 6275   0.670   0.135   1.800 -0.1121  0.2563 -1.4095
 1895SOL     OW 6276   3.474   0.101   0.573  0.0526  0.0340  0.6232
 1895SOL    HW1 6277   3.408   0.166   0.551 -0.3243 -0.5033  0.1505
 1895SOL    HW2 6278   3.505   0.128   0.660  1.4202  2.0617 -0.4020
 1896SOL     OW 6279   1.360   4.795   1.345  0.3864  0.4267  0.1173
 1896SOL    HW1 6280   1.356   4.702   1.326  1.3560  0.3413  0.2650
 1896SOL    HW2 6281   1.340   4.837   1.261 -0.0511  0.0899  0.0514
 1897SOL     OW 6282   3.294   0.549   1.829 -0.2521  0.5333 -0.0545
 1897SOL    HW1 6283   3.359   0.603   1.784  0.6247  1.2895  2.0007
 1897SOL    HW2 6284   3.213   0.598   1.822 -0.9654 -0.8386 -3.4330
 1898SOL     OW 6285   3.815   5.078   3.355 -0.2193 -0.0023 -0.2622
 1898SOL    HW1 6286   3.878   5.145   3.381 -1.0112  0.8041 -0.3451
 1898SOL    HW2 6287   3.807   5.020   3.430  2.1703 -1.3742 -0.9694
 1899SOL     OW 6288   1.765   4.817   0.321  0.0800  0.2553  0.1566
 1899SOL    HW1 6289   1.688   4.832   0.266  0.2995 -0.1271 -0.2636
 1899SOL    HW2 6290   1.732   4.827   0.410 -0.2957  0.8138 -0.0353
 1900SOL     OW 6291   2.580   4.741   1.991  0.1200 -0.7104  0.1175
 1900SOL    HW1 6292   2.656   4.711   1.940 -1.4509 -1.7278 -1.7599
 1900SOL    HW2 6293   2.539   4.807   1.935 -0.0510  0.3068  1.4083
 1901SOL     OW 6294   3.408   4.696   0.626 -0.2819  0.4412  0.2903
 1901SOL    HW1 6295   3.500   4.707   0.602 -0.0276  1.3294  1.5678
 1901SOL    HW2 6296   3.364   4.678   0.543  1.1605 -0.9689 -0.2336
 1902SOL     OW 6297   1.988   4.639   2.566  0.1651  0.4658 -0.0146
 1902SOL    HW1 6298   1.994   4.661   2.474  0.5394 -0.3648 -0.1961
 1902SOL    HW2 6299   1.918   4.695   2.600 -1.4758 -0.7174 -1.2730
 1903SOL     OW 6300   1.657   5.024   0.057 -0.2512  0.0892  0.2303
 1903SOL    HW1 6301   1.610   5.106   0.039  0.3587  0.4634  0.2860
 1903SOL    HW2 6302   1.720   5.049   0.125  1.1327  0.0036 -0.9774
 1904SOL     OW 6303   5.190   4.114   1.361 -0.3570 -0.1619 -0.3494
 1904SOL    HW1 6304   5.140   4.042   1.398  0.0787 -1.1577 -1.6057
 1904SOL    HW2 6305   5.280   4.099   1.391 -0.4353  0.4020  0.1654
 1905SOL     OW 6306   4.856   4.693   1.919  0.7141  0.0107 -0.8701
 1905SOL    HW1 6307   4.809   4.775   1.903 -0.5402 -0.7348 -1.2141
 1905SOL    HW2 6308   4.934   4.719   1.968  0.8302  1.5035 -1.7754
 1906SOL     OW 6309   1.337   4.477   1.041  0.2474 -0.1065  0.0295
 1906SOL    HW1 6310   1.275   4.539   1.002 -1.5914 -2.0231 -0.2622
 1906SOL    HW2 6311   1.395   4.453   0.969 -0.2312 -0.1413 -0.3515
 1907SOL     OW 6312   3.595   5.125   0.933 -0.1515  0.3675  0.1132
 1907SOL    HW1 6313   3.688   5.117   0.954  0.3111  1.1671 -1.4438
 1907SOL    HW2 6314   3.568   5.208   0.972 -0.0580  0.4130  0.0819
 1908SOL     OW 6315   0.363   3.894   2.082  0.1530 -0.7744  0.0628
 1908SOL    HW1 6316   0.433   3.829   2.090 -0.0043 -0.8730  0.6919
 1908SOL    HW2 6317   0.304   3.857   2.017 -0.1359 -1.4515  0.7026
 1909SOL     OW 6318   4.206   3.147   0.795 -0.2931 -0.0282  0.5840
 1909SOL    HW1 6319   4.146   3.206   0.748 -0.3222  0.2216  0.9311
 1909SOL    HW2 6320   4.293   3.186   0.781 -0.1407 -0.6697 -0.3464
 1910SOL     OW 6321   0.466   4.199   1.882 -0.0603  0.1773 -0.3354
 1910SOL    HW1 6322   0.472   4.267   1.815  0.6265  1.8340  1.3131
 1910SOL    HW2 6323   0.384   4.217   1.928 -0.3826 -0.7569 -0.5229
 1911SOL     OW 6324   2.299   4.838   3.400  0.1334 -0.2596  0.0476
 1911SOL    HW1 6325   2.315   4.750   3.435  2.6362  0.4398  0.8130
 1911SOL    HW2 6326   2.219   4.866   3.443  0.5904 -1.2578  1.6193
 1912SOL     OW 6327   3.746   5.392   1.807 -0.4054 -0.4294 -0.5509
 1912SOL    HW1 6328   3.790   5.452   1.746  0.9101  0.7965  1.4667
 1912SOL    HW2 6329   3.812   5.325   1.825  0.5128  0.9622  1.8509
 1913SOL     OW 6330   2.583   1.461   2.908  0.3252 -0.0907  0.3197
 1913SOL    HW1 6331   2.530   1.510   2.845  1.1136 -1.9839 -1.9909
 1913SOL    HW2 6332   2.527   1.453   2.985 -1.9375 -0.1423 -1.2097
 1914SOL     OW 6333   3.996   3.312   0.764 -0.1417  0.1774  0.0592
 1914SOL    HW1 6334   3.967   3.364   0.689 -2.1603 -1.3612 -0.3030
 1914SOL    HW2 6335   3.936   3.337   0.834  1.3956  1.2073  1.0846
 1915SOL     OW 6336   6.834   2.276   2.744 -0.4867  0.9463  0.0378
 1915SOL    HW1 6337   6.744   2.274   2.713  0.1414  0.4548 -1.9070
 1915SOL    HW2 6338   6.848   2.190   2.783 -0.5083  0.5254 -0.8429
 1916SOL     OW 6339   3.194   4.385   1.776 -0.0652  0.1899  0.7194
 1916SOL    HW1 6340   3.140   4.306   1.763 -0.2560  0.2779  0.9666
 1916SOL    HW2 6341   3.181   4.436   1.696  0.4565 -0.2597  0.3414
 1917SOL     OW 6342   2.280   3.641   0.820 -0.3661 -0.1458 -0.1703
 1917SOL    HW1 6343   2.215   3.688   0.874  0.1084 -0.1893  0.4483
 1917SOL    HW2 6344   2.312   3.707   0.759  0.4155  0.3947  0.7997
 1918SOL     OW 6345   1.237   3.195   1.703 -0.4980 -0.4456  0.7759
 1918SOL    HW1 6346   1.297   3.220   1.774  0.4971  2.1866 -0.8678
 1918SOL    HW2 6347   1.166   3.259   1.709 -0.2341  0.0285 -0.7455
 1919SOL     OW 6348   2.280   4.705   0.664  0.4076 -0.0545  0.2410
 1919SOL    HW1 6349   2.360   4.722   0.713  1.0310  0.5576 -0.9532
 1919SOL    HW2 6350   2.211   4.705   0.730  1.3579 -0.4359  1.2682
 1920SOL     OW 6351   2.689   5.220   1.374 -0.2137  0.7604 -0.3101
 1920SOL    HW1 6352   2.701   5.296   1.432  0.8181  0.6896 -0.3966
 1920SOL    HW2 6353   2.667   5.258   1.289 -0.3425  0.9359 -0.1979
 1921SOL     OW 6354   3.013   4.624   0.478  0.0895 -0.1537 -0.2290
 1921SOL    HW1 6355   2.921   4.647   0.495  0.2939  0.7265 -0.2653
 1921SOL    HW2 6356   3.041   4.579   0.558  0.1068  1.0804  0.4898
 1922SOL     OW 6357   2.697   0.305   1.130  0.0855  0.1473  0.1413
 1922SOL    HW1 6358   2.621   0.363   1.123  0.4012  0.7762  1.4863
 1922SOL    HW2 6359   2.765   0.348   1.078 -1.0184 -1.5152 -2.9135
 1923SOL     OW 6360   1.861   2.995   0.602  0.0194 -0.3230 -0.3506
 1923SOL    HW1 6361   1.859   2.910   0.646  0.6997 -0.4380 -0.5196
 1923SOL    HW2 6362   1.930   3.044   0.647 -0.0522 -0.0311 -0.5550
 1924SOL     OW 6363   3.528   3.094   1.555  0.3549 -0.0460  0.1946
 1924SOL    HW1 6364   3.615   3.119   1.524  0.3206 -0.6358 -0.4028
 1924SOL    HW2 6365   3.500   3.168   1.609  0.2296  1.2402 -1.5457
 1925SOL     OW 6366   4.848   4.878   2.253  0.1946  0.2817  0.1696
 1925SOL    HW1 6367   4.754   4.862   2.264 -0.0493  0.8610 -0.9321
 1925SOL    HW2 6368   4.862   4.871   2.158  0.9261  1.9876  0.1335
 1926SOL     OW 6369   3.716   1.317   0.004  0.1893  0.0030 -0.0886
 1926SOL    HW1 6370   3.706   1.237  -0.048  0.1495 -0.4253  0.5725
 1926SOL    HW2 6371   3.741   1.384  -0.060  0.6715 -0.6351 -0.5826
 1927SOL     OW 6372   1.237   0.197   1.822  0.0465  0.2155  0.0151
 1927SOL    HW1 6373   1.244   0.252   1.745 -1.0714 -1.0384 -1.0299
 1927SOL    HW2 6374   1.143   0.186   1.835  0.2408 -1.4586  0.1674
 1928SOL     OW 6375   3.163   5.099   2.097  0.2999 -0.2688  0.1269
 1928SOL    HW1 6376   3.110   5.093   2.176  0.3204  0.2277  0.1801
 1928SOL    HW2 6377   3.173   5.008   2.068  1.6461 -0.6284  1.5953
 1929SOL     OW 6378   2.424   4.535   0.465  0.0408  0.1841 -0.3884
 1929SOL    HW1 6379   2.355   4.517   0.400  0.1040 -0.6939 -0.2175
 1929SOL    HW2 6380   2.386   4.601   0.523  0.3028  1.6746 -1.8316
 1930SOL     OW 6381   1.753   2.698   1.569  0.2592 -0.4272  0.0364
 1930SOL    HW1 6382   1.760   2.792   1.553 -1.7615 -0.2489 -0.0452
 1930SOL    HW2 6383   1.842   2.666   1.560  1.5741  1.9098  2.8682
 1931SOL     OW 6384   5.194   3.773   0.728  0.5824  0.1511 -0.5889
 1931SOL    HW1 6385   5.197   3.810   0.639 -1.0072  0.2224 -0.6501
 1931SOL    HW2 6386   5.104   3.743   0.737  1.1970 -1.4814  0.3727
 1932SOL     OW 6387   0.136   5.109   0.328  0.0992 -0.2318 -0.1966
 1932SOL    HW1 6388   0.185   5.039   0.285 -1.7365 -1.5375 -0.2723
 1932SOL    HW2 6389   0.081   5.065   0.392 -1.4885  1.0580 -0.6040
 1933SOL     OW 6390   2.560   1.251   2.752 -0.2204 -0.1723 -0.1098
 1933SOL    HW1 6391   2.588   1.336   2.784 -1.4167 -0.1116  0.8300
 1933SOL    HW2 6392   2.511   1.212   2.824 -0.7152 -1.1549 -0.9361
 1934SOL     OW 6393   3.055   5.193   2.981 -0.2242  0.2504 -0.0629
 1934SOL    HW1 6394   3.145   5.218   2.958  0.2033 -1.6368 -0.5754
 1934SOL    HW2 6395   3.065   5.116   3.037 -1.5231  0.5199  0.5900
 1935SOL     OW 6396   3.105   3.521   0.373  0.4144  0.4694 -0.4711
 1935SOL    HW1 6397   3.125   3.609   0.342  1.0768  0.9727  1.2481
 1935SOL    HW2 6398   3.161   3.463   0.322  0.7414  1.1457 -0.8841
 1936SOL     OW 6399   2.913   2.591   0.110  0.1424  0.3068 -0.5065
 1936SOL    HW1 6400   2.851   2.635   0.051 -0.5800 -0.4005 -0.2946
 1936SOL    HW2 6401   2.969   2.539   0.053 -1.5453 -1.6117 -0.5156
 1937SOL     OW 6402   3.115   4.622   1.890 -0.4783  0.6440  0.5161
 1937SOL    HW1 6403   3.148   4.618   1.800 -0.1417  1.0337  0.6203
 1937SOL    HW2 6404   3.077   4.535   1.905 -1.3137  0.8570 -0.2873
 1938SOL     OW 6405   3.537   2.636   2.167  0.2801 -0.1546  0.2160
 1938SOL    HW1 6406   3.526   2.729   2.188 -1.8990 -0.4525  0.6232
 1938SOL    HW2 6407   3.593   2.636   2.089  0.6611  1.4580  0.4443
 1939SOL     OW 6408   3.226   2.131   1.801  0.1168 -0.1677  0.4286
 1939SOL    HW1 6409   3.319   2.149   1.816  0.6549 -2.5767  0.3750
 1939SOL    HW2 6410   3.219   2.119   1.706 -0.1885 -0.3601  0.4752
 1940SOL     OW 6411   2.111   5.295   1.434  0.3249 -0.0185 -0.1428
 1940SOL    HW1 6412   2.060   5.215   1.445  0.9185 -0.2830  0.7658
 1940SOL    HW2 6413   2.201   5.271   1.456  0.4046  1.0399  0.7803
 1941SOL     OW 6414   2.173   3.395   1.644 -0.1216 -0.5145 -0.2850
 1941SOL    HW1 6415   2.170   3.489   1.624  0.3051 -0.8158 -1.9026
 1941SOL    HW2 6416   2.093   3.360   1.604 -1.1043 -0.6433  1.6712
 1942SOL     OW 6417   4.139   0.661   2.290  0.1009  0.4062  0.4171
 1942SOL    HW1 6418   4.205   0.677   2.223 -0.6944  0.9828 -0.2551
 1942SOL    HW2 6419   4.154   0.570   2.318  1.1413  0.5239  0.2637
 1943SOL     OW 6420   1.523   4.906   3.350 -0.0688  0.4168  0.2754
 1943SOL    HW1 6421   1.513   4.811   3.362 -1.7243  0.3400 -1.3740
 1943SOL    HW2 6422   1.569   4.935   3.429  1.3400 -1.8723  0.3935
 1944SOL     OW 6423   1.819   4.281   0.756  0.4475  0.3814 -0.3108
 1944SOL    HW1 6424   1.858   4.271   0.669  1.2227 -0.9481  0.1507
 1944SOL    HW2 6425   1.816   4.192   0.791 -2.2457  0.5207  0.0446
 1945SOL     OW 6426   3.411   4.687   0.911  0.2043 -0.2349  0.1005
 1945SOL    HW1 6427   3.420   4.695   0.816 -1.1602 -1.2156 -0.1288
 1945SOL    HW2 6428   3.394   4.776   0.940 -2.6611 -0.3336 -0.9849
 1946SOL     OW 6429   2.746   2.484   0.490 -0.4275  0.0223 -0.5516
 1946SOL    HW1 6430   2.653   2.488   0.513 -0.0949 -1.4691  1.2823
 1946SOL    HW2 6431   2.791   2.508   0.571  0.7965  1.1440 -1.5438
 1947SOL     OW 6432   2.298   5.275   2.566 -0.4954 -0.1484  0.6316
 1947SOL    HW1 6433   2.235   5.293   2.496 -0.0369  0.5028  0.3693
 1947SOL    HW2 6434   2.249   5.293   2.647 -0.7888 -0.1254  0.4519
 1948SOL     OW 6435   2.453   0.571   1.690  1.0484 -0.2491  0.2461
 1948SOL    HW1 6436   2.463   0.576   1.785  2.2608  0.4557  0.1017
 1948SOL    HW2 6437   2.435   0.660   1.663 -0.7965 -0.6827 -0.0579
 1949SOL     OW 6438   3.272   0.637   0.699 -0.7116  0.7352 -0.1835
 1949SOL    HW1 6439   3.272   0.712   0.639 -0.0946  2.7143  2.1066
 1949SOL    HW2 6440   3.181   0.606   0.697 -1.3474  2.4505 -0.1980
 1950SOL     OW 6441   1.733   4.439   0.228  0.3009 -0.6717  0.7290
 1950SOL    HW1 6442   1.638   4.437   0.222  0.3106  1.2750 -1.1441
 1950SOL    HW2 6443   1.763   4.375   0.163  0.2472  0.3099 -0.2893
 1951SOL     OW 6444   3.075   3.060   0.826  0.0444 -0.3038  0.2334
 1951SOL    HW1 6445   3.050   3.150   0.846  2.5866  0.8406 -1.2342
 1951SOL    HW2 6446   3.050   3.049   0.734 -0.4624 -1.2209  0.4664
 1952SOL     OW 6447   2.809   5.058   2.794 -0.6895 -0.2602 -0.1064
 1952SOL    HW1 6448   2.833   4.997   2.864  0.0033 -1.0331 -0.9963
 1952SOL    HW2 6449   2.876   5.126   2.797 -1.5864  0.6215  1.0323
 1953SOL     OW 6450   2.600   2.353   0.895 -0.1878 -0.8559 -0.2593
 1953SOL    HW1 6451   2.510   2.375   0.921 -0.3472 -1.3234 -0.3982
 1953SOL    HW2 6452   2.593   2.265   0.857  0.6064 -1.6025  1.2538
 1954SOL     OW 6453   2.975   2.079   0.624 -0.1650  0.6375 -0.3978
 1954SOL    HW1 6454   3.023   2.004   0.589  0.2656  0.7964 -0.1469
 1954SOL    HW2 6455   2.955   2.132   0.547  1.6467  1.4901 -0.3052
 1955SOL     OW 6456   1.877   4.240   0.056  0.3144 -0.5010 -0.2419
 1955SOL    HW1 6457   1.970   4.259   0.040  0.6287 -0.2247  1.5951
 1955SOL    HW2 6458   1.878   4.178   0.130 -0.9517 -0.9442 -0.5720
 1956SOL     OW 6459   3.164   5.205   0.972 -0.7151  0.1851 -0.4783
 1956SOL    HW1 6460   3.169   5.281   1.029 -4.0232 -0.6669  1.2199
 1956SOL    HW2 6461   3.151   5.241   0.884 -2.1216  1.6337  0.2822
 1957SOL     OW 6462   3.041   3.753   0.901 -0.4580  0.3765 -0.5789
 1957SOL    HW1 6463   3.115   3.809   0.879 -0.1476  0.9940  1.7619
 1957SOL    HW2 6464   3.068   3.666   0.872  1.4400  0.5070  0.6259
 1958SOL     OW 6465   2.709   0.369   0.032  0.4849 -0.1592  0.1912
 1958SOL    HW1 6466   2.664   0.288   0.007 -0.2845  0.2593  0.1755
 1958SOL    HW2 6467   2.664   0.437  -0.017  0.9883  0.3048  0.3646
 1959SOL     OW 6468   2.520   4.922   3.208 -0.0672 -0.5122 -0.0215
 1959SOL    HW1 6469   2.450   4.873   3.251 -0.2607 -0.2953 -0.0857
 1959SOL    HW2 6470   2.582   4.855   3.179  0.9844 -0.5784  2.1538
 1960SOL     OW 6471   2.207   5.097   0.305 -0.7325 -0.2404 -0.4522
 1960SOL    HW1 6472   2.275   5.058   0.251 -2.2047 -1.8475 -1.2397
 1960SOL    HW2 6473   2.157   5.023   0.337 -1.4433  0.8370  1.0544
 1961SOL     OW 6474   3.181   3.449   3.381 -0.0464  0.1504  0.5883
 1961SOL    HW1 6475   3.162   3.474   3.290 -1.6641  0.2410  0.9053
 1961SOL    HW2 6476   3.263   3.493   3.401  0.3702  0.0914 -0.8380
 1962SOL     OW 6477   2.934   5.378   2.481  0.2564  0.1645  0.4227
 1962SOL    HW1 6478   2.876   5.315   2.438  0.1629  0.6523 -0.1870
 1962SOL    HW2 6479   2.909   5.376   2.573 -0.0897 -0.3125  0.3187
 1963SOL     OW 6480   3.357   0.196   0.895 -0.6229  0.4298 -0.3966
 1963SOL    HW1 6481   3.372   0.262   0.963  2.6595  0.6597 -1.1895
 1963SOL    HW2 6482   3.348   0.246   0.814 -0.0861 -0.0035 -0.7295
 1964SOL     OW 6483   3.803   4.144   2.929 -0.2430 -0.1378 -0.6864
 1964SOL    HW1 6484   3.895   4.167   2.922 -0.0569  0.4435  2.3824
 1964SOL    HW2 6485   3.758   4.229   2.929 -0.3274 -0.1160  2.0928
 1965SOL     OW 6486   3.801   5.373   2.078  0.0064 -0.2632  0.1249
 1965SOL    HW1 6487   3.861   5.417   2.018 -0.3970 -0.4340 -0.4187
 1965SOL    HW2 6488   3.852   5.303   2.117  0.3201 -0.0465  0.1059
 1966SOL     OW 6489   3.683   4.564   3.382  0.1300  0.5016 -0.2243
 1966SOL    HW1 6490   3.689   4.470   3.399 -0.1636  0.5761  0.2984
 1966SOL    HW2 6491   3.604   4.575   3.329  0.2511  0.4356 -0.4185
 1967SOL     OW 6492   1.835   5.088   0.266  0.1691  0.2510 -0.2251
 1967SOL    HW1 6493   1.867   5.003   0.298  0.3010  0.3526 -0.0847
 1967SOL    HW2 6494   1.852   5.148   0.339 -1.1307  0.1357  0.2052
 1968SOL     OW 6495   3.076   5.021   1.619  0.2352 -0.5496  0.2544
 1968SOL    HW1 6496   3.113   5.075   1.549  0.0763 -0.5779  0.1451
 1968SOL    HW2 6497   3.144   4.958   1.640  0.4151 -0.3176  0.3703
 1969SOL     OW 6498   1.999   4.787   0.147 -0.0355 -0.6354  0.1170
 1969SOL    HW1 6499   1.997   4.762   0.054 -0.1209  0.4119 -0.1791
 1969SOL    HW2 6500   1.906   4.789   0.172 -0.1015  0.3486 -0.1497
 1970SOL     OW 6501   2.142   3.048   0.741 -0.2346 -0.1292 -0.3129
 1970SOL    HW1 6502   2.093   3.128   0.762 -0.8392 -1.0173  1.8910
 1970SOL    HW2 6503   2.104   2.981   0.797  1.7737 -1.4687 -0.4551
 1971SOL     OW 6504   0.652   3.597   1.229  0.3860  1.0050 -0.0472
 1971SOL    HW1 6505   0.733   3.594   1.179  0.3853 -0.0681 -0.0254
 1971SOL    HW2 6506   0.645   3.510   1.269 -1.0390  0.8705 -0.4993
 1972SOL     OW 6507   1.667   3.637   3.533  0.2935 -0.6237  0.1348
 1972SOL    HW1 6508   1.671   3.571   3.463 -0.3412  0.6592 -1.1524
 1972SOL    HW2 6509   1.584   3.681   3.520  0.1288 -0.3791  1.7742
 1973SOL     OW 6510   3.672   4.600   2.022 -0.0875  0.5132 -0.5295
 1973SOL    HW1 6511   3.676   4.509   1.992  2.1189  0.8235 -1.3654
 1973SOL    HW2 6512   3.762   4.621   2.047 -0.5206  2.5062 -0.4688
 1974SOL     OW 6513   3.470   5.242   2.240  0.3235  0.3342  0.3509
 1974SOL    HW1 6514   3.560   5.231   2.272  0.5735 -0.0090 -0.4381
 1974SOL    HW2 6515   3.480   5.253   2.146 -0.4080  1.1583  0.3574
 1975SOL     OW 6516   2.603   3.696   3.078  0.0539  0.3400 -0.7124
 1975SOL    HW1 6517   2.567   3.731   2.996 -0.3923  1.0317 -0.2329
 1975SOL    HW2 6518   2.596   3.768   3.140  0.7843 -0.0396 -0.1683
 1976SOL     OW 6519   2.077   4.698   0.844 -0.3061  0.0358  0.7210
 1976SOL    HW1 6520   1.997   4.748   0.825  0.4984  1.2597  0.4175
 1976SOL    HW2 6521   2.054   4.608   0.823 -1.5433  0.3975  0.4200
 1977SOL     OW 6522   2.599   4.999   2.172 -0.4409 -0.1577 -0.0554
 1977SOL    HW1 6523   2.529   4.992   2.237 -0.5003 -1.9681 -0.2546
 1977SOL    HW2 6524   2.554   5.018   2.090 -0.7049 -1.0881 -0.1409
 1978SOL     OW 6525   3.580   4.846   1.538 -0.2650  0.9854  0.4100
 1978SOL    HW1 6526   3.594   4.759   1.575  0.6297 -0.4187 -2.8650
 1978SOL    HW2 6527   3.648   4.900   1.578  1.0319 -0.5625  0.4069
 1979SOL     OW 6528   0.812   3.391   2.708  0.1190 -0.1322 -0.2024
 1979SOL    HW1 6529   0.849   3.342   2.636 -1.3880 -1.9079  0.1657
 1979SOL    HW2 6530   0.724   3.414   2.679 -0.2281 -0.1878  0.7687
 1980SOL     OW 6531   2.054   3.925   1.944  0.2617  0.3264 -0.7497
 1980SOL    HW1 6532   1.961   3.943   1.930  0.5816  2.8769 -0.1153
 1980SOL    HW2 6533   2.056   3.841   1.990 -1.8081  0.8059  0.3354
 1981SOL     OW 6534   1.937   2.888   0.857 -0.1044  0.2253  0.0161
 1981SOL    HW1 6535   1.894   2.804   0.867  0.3200  0.0674  0.5553
 1981SOL    HW2 6536   1.904   2.941   0.930 -0.6634  0.6581 -0.5394
 1982SOL     OW 6537   4.552   3.883   0.879 -0.0393 -0.4404  0.5945
 1982SOL    HW1 6538   4.530   3.975   0.866  2.7128  0.0271 -1.9311
 1982SOL    HW2 6539   4.475   3.835   0.850  0.2984  1.0887 -3.6112
 1983SOL     OW 6540   2.495   3.909   0.851  0.1229 -0.5225 -0.3442
 1983SOL    HW1 6541   2.451   3.994   0.858 -0.4557 -0.6899 -1.6972
 1983SOL    HW2 6542   2.588   3.930   0.858 -0.0589  0.0654  0.5839
 1984SOL     OW 6543   6.976   4.921   1.892  0.1278 -0.1405 -0.0231
 1984SOL    HW1 6544   6.919   4.934   1.817 -0.2789  1.3185  0.5146
 1984SOL    HW2 6545   6.977   4.826   1.905 -0.2477 -0.3689 -1.5035
 1985SOL     OW 6546   1.237   4.085   3.109  0.3130  0.0108  0.1295
 1985SOL    HW1 6547   1.239   3.990   3.097 -1.7386 -0.0076 -0.5123
 1985SOL    HW2 6548   1.219   4.097   3.203 -0.4019 -0.2755  0.0358
 1986SOL     OW 6549   5.135   4.575   1.013 -0.4047 -0.0061  0.0606
 1986SOL    HW1 6550   5.228   4.559   1.030 -0.8312 -1.5202  1.2052
 1986SOL    HW2 6551   5.093   4.489   1.023 -1.5533 -0.0182 -3.5389
 1987SOL     OW 6552   0.381   3.892   0.763 -0.1852 -0.3747  0.2021
 1987SOL    HW1 6553   0.323   3.894   0.840 -0.2726  0.6013  0.1344
 1987SOL    HW2 6554   0.448   3.828   0.785 -1.0848 -1.2535  0.4362
 1988SOL     OW 6555   3.329   1.849   2.743  0.5605 -0.4635 -0.5594
 1988SOL    HW1 6556   3.421   1.869   2.729  0.6550  1.2975  1.8319
 1988SOL    HW2 6557   3.321   1.836   2.838 -2.0504  2.2000 -0.2588
 1989SOL     OW 6558   1.582   4.455   2.112  0.2875  0.8353  0.0966
 1989SOL    HW1 6559   1.657   4.455   2.053 -0.6017 -0.6580 -1.1116
 1989SOL    HW2 6560   1.620   4.456   2.199  1.7755 -0.6236 -0.4719
 1990SOL     OW 6561   3.923   4.726   1.117  0.3014  0.4232 -0.2396
 1990SOL    HW1 6562   3.949   4.649   1.066 -0.4880  0.6645 -1.0200
 1990SOL    HW2 6563   3.858   4.693   1.179 -0.0485  0.4579 -0.5848
 1991SOL     OW 6564   2.835   4.913   1.551  0.0416  0.2918  0.2480
 1991SOL    HW1 6565   2.858   4.911   1.458 -0.2185  1.2132  0.1524
 1991SOL    HW2 6566   2.909   4.959   1.592  0.5640 -0.8634  0.6329
 1992SOL     OW 6567   1.055   4.516   2.252  0.2746  0.5069 -0.4521
 1992SOL    HW1 6568   0.998   4.472   2.314  0.5714 -0.3633 -0.7863
 1992SOL    HW2 6569   1.137   4.467   2.255  0.4440  0.7283 -1.2003
 1993SOL     OW 6570   3.596   3.227   0.803 -0.0201 -0.1249 -0.1455
 1993SOL    HW1 6571   3.530   3.179   0.851  0.8375  0.0276  1.2566
 1993SOL    HW2 6572   3.554   3.252   0.721 -1.3669 -0.8345  0.3112
 1994SOL     OW 6573   4.530   3.304   2.646 -0.0590  0.1729  0.2354
 1994SOL    HW1 6574   4.580   3.356   2.709 -0.8843  0.9728  0.2439
 1994SOL    HW2 6575   4.470   3.366   2.606  1.4207  0.0462 -2.4384
 1995SOL     OW 6576   4.078   0.690   3.227  0.5120  0.1241 -0.3323
 1995SOL    HW1 6577   4.002   0.667   3.280  0.4631 -1.8676 -1.1513
 1995SOL    HW2 6578   4.085   0.785   3.235 -0.8526  0.1458  1.3513
 1996SOL     OW 6579   2.013   0.688   2.704  0.0638 -0.3609  0.0895
 1996SOL    HW1 6580   2.009   0.597   2.672  0.8565  0.1674 -1.6608
 1996SOL    HW2 6581   2.070   0.683   2.781  2.6303 -0.9954 -1.7010
 1997SOL     OW 6582   1.430   1.019   0.534  0.5193  0.0231 -0.1953
 1997SOL    HW1 6583   1.358   1.041   0.592 -0.4671  0.8449 -1.6664
 1997SOL    HW2 6584   1.499   1.082   0.556  0.4369 -0.1544  0.5752
 1998SOL     OW 6585   3.134   2.445   1.703 -0.8560 -0.6153  0.0276
 1998SOL    HW1 6586   3.043   2.426   1.724 -0.7329 -0.3577  0.8102
 1998SOL    HW2 6587   3.180   2.363   1.718 -1.1019 -1.0157 -1.2961
 1999SOL     OW 6588   2.564   5.305   2.601  0.4476  0.0456  0.1657
 1999SOL    HW1 6589   2.469   5.295   2.605  0.5498 -1.0954  0.0823
 1999SOL    HW2 6590   2.579   5.362   2.525 -0.1972  0.9396  0.6886
 2000SOL     OW 6591   7.224   4.280   3.339  0.1294  0.3910  0.2834
 2000SOL    HW1 6592   7.228   4.259   3.433  3.0460 -0.7786  0.0194
 2000SOL    HW2 6593   7.285   4.354   3.329 -2.1027  2.2503 -0.3915
 2001SOL     OW 6594   3.061   0.465   0.796 -0.3824  0.3573  0.0305
 2001SOL    HW1 6595   3.027   0.441   0.883  2.4529 -0.5261  0.9846
 2001SOL    HW2 6596   3.048   0.387   0.743 -0.2354  0.1920  0.2401
 2002SOL     OW 6597   2.236   4.304   1.574 -0.1319 -0.0108 -0.7579
 2002SOL    HW1 6598   2.174   4.232   1.587 -0.5067  0.1945 -1.3491
 2002SOL    HW2 6599   2.292   4.302   1.652 -2.2407  1.1768  0.8981
 2003SOL     OW 6600   1.599   0.222   1.622  0.2009  0.0527 -0.5397
 2003SOL    HW1 6601   1.590   0.128   1.634 -0.4260  0.1562 -0.1485
 2003SOL    HW2 6602   1.595   0.258   1.711  0.3872  0.4547 -0.6898
 2004SOL     OW 6603   3.049   4.041   2.053  0.1943  0.1481 -0.3967
 2004SOL    HW1 6604   3.136   4.049   2.014  0.2445 -0.8008 -0.5007
 2004SOL    HW2 6605   3.012   3.963   2.013 -0.4345  0.1403  0.1792
 2005SOL     OW 6606   3.284   3.454   2.241 -0.0671 -0.0552  0.3147
 2005SOL    HW1 6607   3.216   3.441   2.174 -0.2687  1.5721  0.1586
 2005SOL    HW2 6608   3.364   3.467   2.191 -0.0346  0.1582  0.4222
 2006SOL     OW 6609   2.343   0.137   1.785  0.5087  0.2628 -0.0033
 2006SOL    HW1 6610   2.409   0.097   1.842 -0.1611 -0.4019  0.3160
 2006SOL    HW2 6611   2.384   0.140   1.699  0.2473 -1.9975 -0.2510
 2007SOL     OW 6612   3.317   3.854   0.877  0.3852 -0.0977 -0.0759
 2007SOL    HW1 6613   3.299   3.909   0.800 -0.2200 -0.1637  0.0141
 2007SOL    HW2 6614   3.374   3.908   0.931 -0.7185  0.7354  0.3188
 2008SOL     OW 6615   0.937   0.428   3.028 -0.1567  0.0161  0.5116
 2008SOL    HW1 6616   1.013   0.456   3.079 -0.9248  0.4957  1.4310
 2008SOL    HW2 6617   0.875   0.501   3.036  0.2576  0.8160 -2.4103
 2009SOL     OW 6618   2.480   5.022   1.921 -0.0929 -0.0358 -0.1327
 2009SOL    HW1 6619   2.530   5.073   1.858  0.0559 -0.9608 -0.7822
 2009SOL    HW2 6620   2.389   5.033   1.895 -0.2137  1.2172  0.7294
 2010SOL     OW 6621   1.361   5.252   1.793  0.3005  0.6643 -0.4176
 2010SOL    HW1 6622   1.311   5.214   1.721  0.1475  0.1734 -0.0655
 2010SOL    HW2 6623   1.303   5.242   1.869  0.0826  2.0186 -0.3956
 2011SOL     OW 6624   1.614   5.269   0.298  0.0643  0.4862 -0.3581
 2011SOL    HW1 6625   1.632   5.210   0.225  0.6478  0.2557 -0.0365
 2011SOL    HW2 6626   1.699   5.307   0.321  0.6027 -1.9911  2.3753
 2012SOL     OW 6627   3.098   0.047   3.302 -0.0334 -0.0295  0.0122
 2012SOL    HW1 6628   3.041  -0.029   3.294 -1.0392  0.7815 -0.8944
 2012SOL    HW2 6629   3.045   0.113   3.346  0.3210  0.6127 -0.4923
 2013SOL     OW 6630   1.066   5.411   1.609 -0.4412  0.4096  0.1717
 2013SOL    HW1 6631   1.043   5.351   1.680 -1.4998  0.1871 -0.3395
 2013SOL    HW2 6632   1.134   5.365   1.560 -0.3256  0.1837  0.5427
 2014SOL     OW 6633   3.520   0.505   0.905 -0.0314 -0.1415 -0.0709
 2014SOL    HW1 6634   3.470   0.566   0.851  0.9789  0.2549 -0.6047
 2014SOL    HW2 6635   3.461   0.481   0.976 -0.0925  2.4078  0.8474
 2015SOL     OW 6636   3.412   2.279   0.855 -0.3565 -0.1966  0.3675
 2015SOL    HW1 6637   3.397   2.269   0.761  1.4297  0.9747 -0.0879
 2015SOL    HW2 6638   3.338   2.331   0.886  0.3539  1.6731 -0.9176
 2016SOL     OW 6639   2.018   4.954   2.581 -0.7327  0.2751  0.2989
 2016SOL    HW1 6640   2.109   4.949   2.609 -0.7743 -0.6449  0.3040
 2016SOL    HW2 6641   2.016   4.912   2.495 -1.3847 -1.0775  0.9351
 2017SOL     OW 6642   0.714   4.811   0.169  0.8059  0.3396 -0.2336
 2017SOL    HW1 6643   0.784   4.873   0.191  3.5149 -1.6426 -2.4474
 2017SOL    HW2 6644   0.655   4.861   0.112  2.3118  1.2308 -1.0916
 2018SOL     OW 6645   1.600   0.241   0.621 -0.1691 -0.4629  0.1220
 2018SOL    HW1 6646   1.629   0.279   0.704 -0.0738 -1.5749  0.6074
 2018SOL    HW2 6647   1.506   0.228   0.633 -0.3871  0.5250 -0.4155
 2019SOL     OW 6648   2.889   5.012   3.156  0.0089 -0.3923  0.2370
 2019SOL    HW1 6649   2.891   4.928   3.109 -0.8430 -0.2641 -0.0522
 2019SOL    HW2 6650   2.816   5.003   3.218  0.7908 -0.3639  1.1861
 2020SOL     OW 6651   3.096   3.196   3.477 -0.4366  0.5502 -0.6908
 2020SOL    HW1 6652   3.024   3.173   3.419  1.4920  1.7837 -3.8002
 2020SOL    HW2 6653   3.121   3.284   3.451  1.6207  0.5168  0.9074
 2021SOL     OW 6654   2.985   4.266   0.387 -0.5740  0.3111  0.2614
 2021SOL    HW1 6655   2.889   4.260   0.394 -0.7454 -2.0898 -2.3237
 2021SOL    HW2 6656   3.000   4.330   0.317 -0.4315 -0.8059 -0.7598
 2022SOL     OW 6657   0.532   4.693   3.163 -0.4211 -0.1179  0.1539
 2022SOL    HW1 6658   0.547   4.768   3.105  0.6031 -0.3103  0.1425
 2022SOL    HW2 6659   0.463   4.642   3.119  0.0369 -0.0336 -0.6929
 2023SOL     OW 6660   2.249   4.710   0.200 -0.2564 -0.1980  0.6886
 2023SOL    HW1 6661   2.160   4.727   0.170  0.3065 -0.0727 -1.0301
 2023SOL    HW2 6662   2.239   4.648   0.272 -1.6409 -1.3815 -0.4803
 2024SOL     OW 6663   0.736   4.552   0.774 -0.4820 -0.4493 -0.3971
 2024SOL    HW1 6664   0.708   4.639   0.802  1.4119  0.3390 -0.7721
 2024SOL    HW2 6665   0.699   4.493   0.840 -1.5650  0.6479  0.0254
 2025SOL     OW 6666   2.766   1.251   2.429 -0.8037 -0.0418  0.3551
 2025SOL    HW1 6667   2.758   1.240   2.334 -1.5499  0.3493  0.3670
 2025SOL    HW2 6668   2.844   1.201   2.452  0.8412  1.8109 -0.8250
 2026SOL     OW 6669   1.554   5.373   1.632  0.0684 -0.4581 -0.1105
 2026SOL    HW1 6670   1.489   5.334   1.690  1.3787 -2.1506  0.3242
 2026SOL    HW2 6671   1.609   5.299   1.604  2.8340  1.0551  0.8911
 2027SOL     OW 6672   3.120   3.368   2.040  0.7885  0.1535  0.1812
 2027SOL    HW1 6673   3.053   3.300   2.035 -0.6069  1.4475  0.6509
 2027SOL    HW2 6674   3.187   3.340   1.977 -1.3093 -0.0094 -2.1417
 2028SOL     OW 6675   2.087   4.219   0.365  0.1638 -0.4856  0.8370
 2028SOL    HW1 6676   1.998   4.188   0.384 -1.1058  2.6329  0.7551
 2028SOL    HW2 6677   2.143   4.171   0.424 -1.1633 -4.3048 -0.7117
 2029SOL     OW 6678   1.646   4.065   0.547 -0.2130 -0.7800 -0.3257
 2029SOL    HW1 6679   1.555   4.049   0.573 -0.1875  0.2624  0.4759
 2029SOL    HW2 6680   1.652   4.160   0.537  0.9705 -0.7558  0.3679
 2030SOL     OW 6681   1.980   3.845   3.164  0.4092  0.8883 -0.0228
 2030SOL    HW1 6682   2.030   3.910   3.213  0.4019 -1.9238  4.2755
 2030SOL    HW2 6683   1.888   3.866   3.183  0.3728  0.3164  0.4670
 2031SOL     OW 6684   3.114   5.171   0.255  0.4090  0.0534  0.1022
 2031SOL    HW1 6685   3.164   5.115   0.315 -0.4580 -1.4432 -0.5218
 2031SOL    HW2 6686   3.178   5.195   0.188  0.6219 -0.8084 -0.0199
 2032SOL     OW 6687   2.383   0.882   0.646  0.4172 -0.1251 -0.2029
 2032SOL    HW1 6688   2.339   0.909   0.727  1.1493  0.6027 -0.0306
 2032SOL    HW2 6689   2.326   0.914   0.577  1.2387  1.9902 -0.0061
 2033SOL     OW 6690   0.929   5.191   1.771 -0.5669  0.0045  0.2482
 2033SOL    HW1 6691   0.923   5.101   1.802  1.4181  0.1551  1.2587
 2033SOL    HW2 6692   0.875   5.241   1.832 -1.1341 -0.4004  0.0870
 2034SOL     OW 6693   2.726   2.146   1.564 -0.0221  0.3230  0.3059
 2034SOL    HW1 6694   2.785   2.073   1.583  1.5101  1.0415 -1.3337
 2034SOL    HW2 6695   2.678   2.118   1.486 -0.0323  0.7277  0.1668
 2035SOL     OW 6696   2.549   2.239   0.192 -0.2015  0.8000 -1.0208
 2035SOL    HW1 6697   2.604   2.242   0.114 -0.3895  0.6446 -1.1593
 2035SOL    HW2 6698   2.473   2.293   0.170  0.3274  1.8179 -0.4885
 2036SOL     OW 6699   4.589   4.252   0.539  0.1550  0.3344  0.4947
 2036SOL    HW1 6700   4.638   4.171   0.554  0.2798  0.1445 -0.8149
 2036SOL    HW2 6701   4.509   4.223   0.494  0.2136  0.9478 -0.0047
 2037SOL     OW 6702   3.369   4.720   1.345 -0.2948 -0.2472  0.5784
 2037SOL    HW1 6703   3.438   4.658   1.369 -1.5882 -1.9094  0.1805
 2037SOL    HW2 6704   3.415   4.793   1.304  1.1815 -1.6282 -0.3261
 2038SOL     OW 6705   3.440   4.314   0.788  0.2895  0.6313 -0.1978
 2038SOL    HW1 6706   3.407   4.362   0.712  1.6056 -0.2469 -1.3857
 2038SOL    HW2 6707   3.385   4.236   0.793 -0.2066  0.9965  0.1621
 2039SOL     OW 6708   3.563   5.414   0.943 -0.3029  0.0440 -0.4259
 2039SOL    HW1 6709   3.481   5.455   0.917 -1.2952 -2.0158 -0.7601
 2039SOL    HW2 6710   3.609   5.399   0.860  0.6536  1.5801 -0.2105
 2040SOL     OW 6711   3.835   4.986   2.346  0.4537  0.6783  1.2435
 2040SOL    HW1 6712   3.924   4.994   2.310  0.2895  0.2720  0.7317
 2040SOL    HW2 6713   3.781   4.966   2.269  0.0386  0.1340  1.6799
 2041SOL     OW 6714   4.516   2.591   0.533 -0.2594  0.3041 -0.6999
 2041SOL    HW1 6715   4.449   2.555   0.591  2.2961 -0.4546  2.0334
 2041SOL    HW2 6716   4.504   2.686   0.538 -1.4924  0.1566 -0.7420
 2042SOL     OW 6717   3.904   3.955   0.239 -0.2471  0.5473  0.0179
 2042SOL    HW1 6718   3.944   3.996   0.163 -1.8979  0.0088 -1.2217
 2042SOL    HW2 6719   3.961   3.977   0.312  1.3852  1.1114 -1.3629
 2043SOL     OW 6720   2.351   3.114   3.108  0.1044 -0.3131 -0.2955
 2043SOL    HW1 6721   2.272   3.164   3.127 -0.3628 -1.1633  0.0684
 2043SOL    HW2 6722   2.417   3.180   3.088 -0.9356  0.3786 -1.5682
 2044SOL     OW 6723   0.961   3.706   1.954  0.3369  0.5265 -0.2764
 2044SOL    HW1 6724   0.885   3.656   1.923  1.0157  0.2842 -1.6113
 2044SOL    HW2 6725   0.979   3.669   2.040 -1.4107  0.9933  0.3308
 2045SOL     OW 6726   4.985   3.415   0.759  0.1139 -0.0617  0.2015
 2045SOL    HW1 6727   4.890   3.402   0.769 -0.1708  0.9463 -0.9372
 2045SOL    HW2 6728   5.024   3.341   0.804 -1.2164 -0.4127  0.8346
 2046SOL     OW 6729   2.777   5.198   2.279 -0.2872  0.2133 -0.1757
 2046SOL    HW1 6730   2.732   5.281   2.297 -1.5270 -0.3167 -0.6969
 2046SOL    HW2 6731   2.735   5.166   2.199  0.9848 -0.3638 -0.6315
 2047SOL     OW 6732   3.951   3.524   1.624 -0.2034  0.0664 -0.4214
 2047SOL    HW1 6733   3.864   3.560   1.609  0.1013  0.5364 -1.1346
 2047SOL    HW2 6734   3.941   3.430   1.617 -0.6349  0.1259 -0.5988
 2048SOL     OW 6735   3.475   3.330   0.584 -0.2217 -0.9089  0.3434
 2048SOL    HW1 6736   3.381   3.315   0.591 -0.4289  0.4508  0.8655
 2048SOL    HW2 6737   3.495   3.315   0.492 -1.0304 -0.7987  0.1368
 2049SOL     OW 6738   3.594   5.258   2.931 -0.0487  0.7608  0.0871
 2049SOL    HW1 6739   3.572   5.349   2.909 -0.1928  0.1977 -2.2680
 2049SOL    HW2 6740   3.679   5.243   2.889  1.3538  0.5811  2.7584
 2050SOL     OW 6741   2.667   4.055   2.474  0.2795 -0.3275 -0.4958
 2050SOL    HW1 6742   2.646   4.141   2.512  1.6412 -0.2217  0.0782
 2050SOL    HW2 6743   2.601   4.043   2.405 -0.8851  0.4805  0.4174
 2051SOL     OW 6744   3.161   0.373   2.608 -0.3188 -0.1131  0.1343
 2051SOL    HW1 6745   3.090   0.309   2.601  0.4688 -1.0845  0.6816
 2051SOL    HW2 6746   3.170   0.388   2.702 -0.0581  0.3088  0.0444
 2052SOL     OW 6747   1.175   3.461   0.925 -0.1592  0.7010 -0.3303
 2052SOL    HW1 6748   1.229   3.531   0.888  1.9996 -1.4061 -1.3901
 2052SOL    HW2 6749   1.187   3.387   0.866 -1.8565 -0.8104  1.0876
 2053SOL     OW 6750   3.256   2.785   1.716  0.3683 -0.2002  0.2508
 2053SOL    HW1 6751   3.255   2.698   1.676  1.3692  0.7077 -1.9167
 2053SOL    HW2 6752   3.287   2.843   1.646  1.2895  1.6727  2.1045
 2054SOL     OW 6753   3.493   0.613   3.359  0.0744 -0.8392 -0.3424
 2054SOL    HW1 6754   3.526   0.638   3.445 -1.2788 -0.5532  0.1261
 2054SOL    HW2 6755   3.460   0.695   3.322 -1.9151 -1.3902  0.0727
 2055SOL     OW 6756   1.680   4.818   0.574  0.1729 -0.3837 -0.7906
 2055SOL    HW1 6757   1.634   4.862   0.646  1.6559 -1.0788  0.6419
 2055SOL    HW2 6758   1.697   4.730   0.607  2.1223 -0.2816 -1.4024
 2056SOL     OW 6759   4.177   4.743   1.955  0.0342  0.0067 -0.3731
 2056SOL    HW1 6760   4.213   4.670   2.005  2.4647  0.9392 -0.6581
 2056SOL    HW2 6761   4.214   4.821   1.996  0.8347  0.8712 -2.5934
 2057SOL     OW 6762   2.275   3.976   0.030  0.2312 -0.3429 -0.1083
 2057SOL    HW1 6763   2.207   3.913   0.055  0.0985  0.0176  0.4399
 2057SOL    HW2 6764   2.230   4.060   0.028  0.5031 -0.2014 -0.4448
 2058SOL     OW 6765   2.714   3.601   0.238  0.3193 -1.0125  0.3078
 2058SOL    HW1 6766   2.704   3.667   0.306  0.9254 -1.5940  0.9836
 2058SOL    HW2 6767   2.762   3.530   0.281 -0.5664 -2.0188 -0.3022
 2059SOL     OW 6768   2.526   4.160   3.037  0.0483 -0.5448 -0.5432
 2059SOL    HW1 6769   2.579   4.190   3.111 -0.6830 -1.8273  0.5413
 2059SOL    HW2 6770   2.506   4.240   2.988  2.5667  0.0313 -0.7485
 2060SOL     OW 6771   1.591   2.765   0.847  0.3040 -0.0217 -0.2714
 2060SOL    HW1 6772   1.549   2.731   0.925 -0.2605 -1.3803 -1.1293
 2060SOL    HW2 6773   1.579   2.860   0.852 -1.9343 -0.2743  0.0673
 2061SOL     OW 6774   3.522   1.962   1.580  0.1164  0.0149  0.4063
 2061SOL    HW1 6775   3.559   2.047   1.557  0.0146  0.1985  0.9092
 2061SOL    HW2 6776   3.590   1.918   1.630  0.5550 -0.6127 -0.6892
 2062SOL     OW 6777   1.807   4.302   2.262  0.4404 -0.7825  0.3817
 2062SOL    HW1 6778   1.797   4.267   2.173 -2.3738  0.2924  0.1520
 2062SOL    HW2 6779   1.823   4.395   2.249  0.5891 -0.7210  0.9946
 2063SOL     OW 6780   3.512   4.766   2.937 -0.6403  0.7305 -0.2087
 2063SOL    HW1 6781   3.500   4.854   2.902 -0.8611  0.6001 -0.4699
 2063SOL    HW2 6782   3.581   4.728   2.882 -0.8541  0.5906 -0.3825
 2064SOL     OW 6783   2.107   4.665   3.086  0.1746  0.0843  0.3911
 2064SOL    HW1 6784   2.118   4.752   3.047 -0.8473  0.2724  0.5129
 2064SOL    HW2 6785   2.089   4.608   3.011 -0.6970  0.2549  0.4629
 2065SOL     OW 6786   4.740   4.944   1.919  0.5402 -0.2346 -0.2902
 2065SOL    HW1 6787   4.796   4.980   1.851  2.9536  0.2471  1.7867
 2065SOL    HW2 6788   4.715   5.020   1.972 -0.9769 -0.6364 -0.4022
 2066SOL     OW 6789   3.195   4.341   3.411  0.2030 -0.1725  0.5398
 2066SOL    HW1 6790   3.133   4.376   3.347  0.0843 -0.3042  0.5825
 2066SOL    HW2 6791   3.179   4.247   3.411  1.5357 -0.4236 -0.6613
 2067SOL     OW 6792   5.270   4.959   2.191 -0.2096  0.2006  0.1705
 2067SOL    HW1 6793   5.284   5.033   2.251 -1.4940 -0.0676  0.8528
 2067SOL    HW2 6794   5.345   4.902   2.204 -0.0151  0.6039  0.8601
 2068SOL     OW 6795   3.857   4.620   1.626  0.2114  0.2549 -0.1562
 2068SOL    HW1 6796   3.767   4.653   1.636 -0.4837 -0.8647 -2.1467
 2068SOL    HW2 6797   3.911   4.698   1.631 -0.9065  1.0240  0.5767
 2069SOL     OW 6798   2.761   0.668   2.506  0.2524  0.2105  0.1200
 2069SOL    HW1 6799   2.703   0.740   2.530  0.8347  0.6335  0.3032
 2069SOL    HW2 6800   2.826   0.708   2.449 -1.0009 -0.7597 -2.0786
 2070SOL     OW 6801   1.692   3.905   3.212 -0.4885  0.1202  0.1713
 2070SOL    HW1 6802   1.633   3.945   3.147 -0.7464 -0.2432  0.1783
 2070SOL    HW2 6803   1.699   3.971   3.281 -0.6236  0.3012  0.0157
 2071SOL     OW 6804   4.169   3.192   2.706 -0.2766  0.2298 -0.8095
 2071SOL    HW1 6805   4.157   3.188   2.801  2.8767  1.8750 -0.2246
 2071SOL    HW2 6806   4.177   3.100   2.679 -0.4814 -0.2328  0.6205
 2072SOL     OW 6807   2.472   2.561   0.621  0.4707  0.3281  0.1808
 2072SOL    HW1 6808   2.505   2.554   0.711  1.6605 -0.8919 -0.3246
 2072SOL    HW2 6809   2.507   2.644   0.589  2.2774 -0.4576  0.0005
 2073SOL     OW 6810   5.072   4.737   2.067  0.3159 -0.0466 -0.0927
 2073SOL    HW1 6811   5.064   4.715   2.160 -2.2085  0.1947 -0.1943
 2073SOL    HW2 6812   5.146   4.798   2.064  0.2360  0.2136  1.8050
 2074SOL     OW 6813   4.194   4.490   0.124  0.0668  0.3830  0.1238
 2074SOL    HW1 6814   4.201   4.584   0.140 -0.2436  0.2213  1.3186
 2074SOL    HW2 6815   4.110   4.465   0.163 -1.0799  0.0153 -2.3562
 2075SOL     OW 6816   1.127   3.327   1.153  0.2737  0.0212 -0.1792
 2075SOL    HW1 6817   1.105   3.241   1.118 -0.2264 -0.8218  2.0376
 2075SOL    HW2 6818   1.153   3.378   1.076  0.1042 -1.9338 -1.6215
 2076SOL     OW 6819   2.849   3.441   1.596  0.7793  0.7659  0.0461
 2076SOL    HW1 6820   2.831   3.406   1.509  1.5986 -1.2677  0.6324
 2076SOL    HW2 6821   2.926   3.393   1.626 -1.5161 -1.2918  3.3057
 2077SOL     OW 6822   3.102   4.976   1.151  0.4043 -0.6427  0.1831
 2077SOL    HW1 6823   3.065   5.040   1.091  1.2167 -0.3648 -0.0403
 2077SOL    HW2 6824   3.174   4.937   1.102  1.8544  0.4330  1.3650
 2078SOL     OW 6825   3.470   2.205   1.772 -0.0718  0.5129 -0.1089
 2078SOL    HW1 6826   3.563   2.203   1.796  0.2340  2.0084 -1.0012
 2078SOL    HW2 6827   3.467   2.263   1.695 -1.7201  0.3241 -0.2155
 2079SOL     OW 6828   2.042   5.192   1.872  0.4102 -0.1197 -0.0906
 2079SOL    HW1 6829   2.099   5.119   1.850 -0.3887 -1.3534  1.6422
 2079SOL    HW2 6830   1.955   5.163   1.844  0.1813  0.4639  0.0052
 2080SOL     OW 6831   6.011   3.649   2.029 -0.2177 -0.8621 -0.0804
 2080SOL    HW1 6832   6.024   3.700   1.950  0.9665  1.1200  1.3110
 2080SOL    HW2 6833   5.953   3.703   2.083  0.4043 -1.3538  1.1117
 2081SOL     OW 6834   3.707   4.270   2.621  0.1542 -0.3435  0.7685
 2081SOL    HW1 6835   3.768   4.321   2.567  0.0502 -0.0644  0.9146
 2081SOL    HW2 6836   3.694   4.323   2.699 -0.8322 -0.0689  0.4211
 2082SOL     OW 6837   2.874   0.947   2.699  0.3282  0.1427  0.2111
 2082SOL    HW1 6838   2.926   0.868   2.688  0.2823  0.2748 -1.0833
 2082SOL    HW2 6839   2.887   0.996   2.618 -1.1997  0.5457  0.1724
 2083SOL     OW 6840   4.556   5.185   0.129 -0.1280 -0.4618  0.3272
 2083SOL    HW1 6841   4.591   5.264   0.088 -0.4222 -1.8829 -3.0533
 2083SOL    HW2 6842   4.595   5.184   0.216  1.8823  2.0921 -0.4065
 2084SOL     OW 6843   5.116   4.337   0.710  0.3053 -0.2400 -0.3156
 2084SOL    HW1 6844   5.195   4.344   0.765 -0.7308  1.6348  1.0561
 2084SOL    HW2 6845   5.114   4.246   0.683 -0.3688 -2.1202  4.8915
 2085SOL     OW 6846   3.391   3.633   3.356 -0.4525  0.3373  0.2470
 2085SOL    HW1 6847   3.440   3.616   3.276  1.1854 -1.2366  1.4966
 2085SOL    HW2 6848   3.389   3.729   3.363  0.1761  0.4796 -1.1712
 2086SOL     OW 6849   3.819   2.771   3.372 -0.3528 -0.3200  0.2262
 2086SOL    HW1 6850   3.809   2.843   3.310  0.7998  0.1211  0.5292
 2086SOL    HW2 6851   3.865   2.703   3.323 -0.8524 -0.6029  0.1387
 2087SOL     OW 6852   2.120   4.502   1.988 -0.2349  0.0250 -0.3021
 2087SOL    HW1 6853   2.099   4.435   2.053 -2.3475  0.7170 -0.2124
 2087SOL    HW2 6854   2.155   4.575   2.040  3.2322 -1.3037 -0.4947
 2088SOL     OW 6855   1.623   1.009   0.340  0.1136 -0.0562  0.2792
 2088SOL    HW1 6856   1.563   0.977   0.408 -0.3782 -1.2771 -0.7020
 2088SOL    HW2 6857   1.661   1.088   0.378 -3.2498  1.6981  0.3757
 2089SOL     OW 6858   0.916   2.438   0.370  0.0473 -0.0909  0.0683
 2089SOL    HW1 6859   0.937   2.348   0.394  0.2739  0.4801  2.2005
 2089SOL    HW2 6860   0.845   2.431   0.306 -0.0618 -1.7612  0.3493
 2090SOL     OW 6861   4.516   2.390   0.347  0.1255 -0.2376  0.1042
 2090SOL    HW1 6862   4.531   2.457   0.413 -0.0294  0.1912 -0.2864
 2090SOL    HW2 6863   4.421   2.380   0.345  0.0211  0.7159 -0.9727
 2091SOL     OW 6864   3.617   0.759   2.339  0.3646  0.2851 -0.2121
 2091SOL    HW1 6865   3.632   0.685   2.396  0.0359  0.1508 -0.2961
 2091SOL    HW2 6866   3.531   0.743   2.300 -0.8713  1.9142  1.6447
 2092SOL     OW 6867   2.486   4.594   3.421 -0.0628  0.1335  0.6505
 2092SOL    HW1 6868   2.579   4.619   3.426 -0.1177  1.6753 -2.9936
 2092SOL    HW2 6869   2.475   4.529   3.490  4.2069 -1.5266  0.0498
 2093SOL     OW 6870   3.477   2.439   0.217 -0.3261  0.2304 -0.0052
 2093SOL    HW1 6871   3.431   2.412   0.297 -1.0752 -0.0197 -0.5111
 2093SOL    HW2 6872   3.538   2.506   0.247 -0.7756  0.3236  0.7429
 2094SOL     OW 6873   4.822   2.031   0.827  0.3746  0.2432 -0.4027
 2094SOL    HW1 6874   4.809   1.962   0.892  0.8418 -0.6051 -1.1968
 2094SOL    HW2 6875   4.876   1.991   0.759  2.5758  2.0104  0.1801
 2095SOL     OW 6876   1.694   4.002   1.549  0.1484  0.4320 -0.7324
 2095SOL    HW1 6877   1.787   4.024   1.557  0.6807 -1.7331 -0.2787
 2095SOL    HW2 6878   1.649   4.066   1.604  1.5113  0.6497  0.1713
 2096SOL     OW 6879   4.403   4.712   0.375  0.1054 -0.4205  0.0595
 2096SOL    HW1 6880   4.344   4.727   0.449  0.0941  0.6797 -0.1558
 2096SOL    HW2 6881   4.490   4.709   0.414  0.0624 -0.2590  0.1670
 2097SOL     OW 6882   1.208   4.823   0.110 -0.2150  0.4968 -0.4762
 2097SOL    HW1 6883   1.141   4.785   0.054 -0.8980 -1.8921  1.7411
 2097SOL    HW2 6884   1.167   4.902   0.146 -2.1092 -1.1088  1.1145
 2098SOL     OW 6885   3.170   4.108   2.577  0.5816  0.5484  0.1711
 2098SOL    HW1 6886   3.156   4.069   2.663  1.1744  0.5089  0.2481
 2098SOL    HW2 6887   3.204   4.036   2.523 -3.4695 -0.6296 -1.2586
 2099SOL     OW 6888   4.877   4.725   2.509 -0.1724  0.2283 -0.0790
 2099SOL    HW1 6889   4.885   4.792   2.442 -0.7734  0.3292 -0.0556
 2099SOL    HW2 6890   4.787   4.693   2.501 -0.0147 -0.2967  0.1701
 2100SOL     OW 6891   2.618   3.237   2.837 -0.1869 -0.6604  0.6492
 2100SOL    HW1 6892   2.586   3.156   2.796 -0.2321 -0.6768  0.7156
 2100SOL    HW2 6893   2.556   3.304   2.810 -0.5290 -0.7748  1.1304
 2101SOL     OW 6894   4.213   3.556   1.558  0.1964  0.3854  0.2477
 2101SOL    HW1 6895   4.118   3.554   1.571  0.2263 -0.5135  0.3911
 2101SOL    HW2 6896   4.233   3.648   1.543 -0.7709  0.5145 -0.3277
 2102SOL     OW 6897   4.217   3.121   2.006  0.6714 -0.6208 -0.4555
 2102SOL    HW1 6898   4.214   3.137   1.911 -1.3871 -1.8311 -0.6443
 2102SOL    HW2 6899   4.260   3.036   2.014 -0.1597 -1.0385 -0.3911
 2103SOL     OW 6900   0.726   0.485   0.741  0.3678 -0.1336  0.1217
 2103SOL    HW1 6901   0.752   0.565   0.786 -0.4291  0.0845  0.2086
 2103SOL    HW2 6902   0.751   0.499   0.649  0.3216  0.1693  0.1561
 2104SOL     OW 6903   0.574   3.674   2.195  0.2648  0.1589 -0.0989
 2104SOL    HW1 6904   0.638   3.730   2.151 -0.4948  2.4520  1.5106
 2104SOL    HW2 6905   0.524   3.633   2.124  0.9513  1.4248 -1.3482
 2105SOL     OW 6906   4.112   4.198   2.103  0.1766  0.0927  0.0061
 2105SOL    HW1 6907   4.112   4.117   2.153  0.5296  0.4035  0.5263
 2105SOL    HW2 6908   4.174   4.183   2.031 -1.0022 -0.6697 -0.8857
 2106SOL     OW 6909   0.953   2.881   0.677 -0.8378 -0.0627 -0.5353
 2106SOL    HW1 6910   0.899   2.864   0.599 -0.3513  0.1481 -0.9238
 2106SOL    HW2 6911   0.923   2.967   0.708  0.1187  0.6539 -1.4949
 2107SOL     OW 6912   4.519   0.158   0.948  0.3331  0.0208 -0.4064
 2107SOL    HW1 6913   4.493   0.135   0.858  0.0119  1.5789 -0.7368
 2107SOL    HW2 6914   4.507   0.253   0.953 -0.8704 -0.1738  1.6796
 2108SOL     OW 6915   5.809   3.866   1.142  0.0494 -0.1656  0.2286
 2108SOL    HW1 6916   5.796   3.939   1.202  1.0241 -0.2212  0.5245
 2108SOL    HW2 6917   5.868   3.900   1.075  0.2074 -0.5638  0.1617
 2109SOL     OW 6918   2.862   2.955   1.811 -0.1720  0.1475  0.3948
 2109SOL    HW1 6919   2.788   2.995   1.857 -0.7873  1.6890 -1.7544
 2109SOL    HW2 6920   2.850   2.981   1.719  1.3772 -2.1301 -0.5532
 2110SOL     OW 6921   2.409   3.349   2.694  0.4133 -0.1525 -0.0899
 2110SOL    HW1 6922   2.323   3.308   2.710 -0.9034  2.7163  0.8753
 2110SOL    HW2 6923   2.389   3.425   2.639  2.4550  0.2602 -0.3359
 2111SOL     OW 6924   1.381   5.289   0.560 -0.0585 -0.0881  0.1676
 2111SOL    HW1 6925   1.454   5.285   0.499  0.5057 -0.9046  0.8802
 2111SOL    HW2 6926   1.372   5.383   0.580  2.2374 -0.1233  1.7333
 2112SOL     OW 6927   3.538   3.616   0.677  0.0396 -0.0228 -0.1924
 2112SOL    HW1 6928   3.523   3.667   0.598 -0.1286  1.6240  0.8507
 2112SOL    HW2 6929   3.518   3.526   0.652  1.3805  0.2246 -2.3859
 2113SOL     OW 6930   1.770   0.819   3.308  0.0010  0.3462 -0.1530
 2113SOL    HW1 6931   1.710   0.876   3.260  0.1239 -1.0255 -2.0333
 2113SOL    HW2 6932   1.714   0.760   3.357 -0.1323  0.8357  0.2994
 2114SOL     OW 6933   3.318   4.911   1.642 -0.0644  0.2432 -0.2255
 2114SOL    HW1 6934   3.360   4.939   1.724 -0.2705  2.5506 -0.8365
 2114SOL    HW2 6935   3.388   4.871   1.591 -0.1450 -2.2056  1.4212
 2115SOL     OW 6936   3.536   0.064   1.695  0.3125  0.2945  0.7042
 2115SOL    HW1 6937   3.463   0.003   1.699  1.1773 -0.9153 -0.8314
 2115SOL    HW2 6938   3.604   0.025   1.750  0.1201  0.9903  1.4532
 2116SOL     OW 6939   4.083   1.021   0.548  0.5885 -0.3695 -0.1146
 2116SOL    HW1 6940   4.146   1.014   0.619  0.3689 -0.1384  0.1097
 2116SOL    HW2 6941   4.088   1.112   0.520 -0.2382 -0.1231  0.4770
 2117SOL     OW 6942   4.462   4.424   2.851 -0.1106 -0.1098  0.0707
 2117SOL    HW1 6943   4.399   4.464   2.790  1.3140  2.8775  0.3870
 2117SOL    HW2 6944   4.448   4.470   2.933  0.9528 -1.0507  0.8105
 2118SOL     OW 6945   3.984   4.026   3.507 -0.5326  0.5388  0.7046
 2118SOL    HW1 6946   4.069   4.069   3.515 -0.5269  0.6898 -0.0985
 2118SOL    HW2 6947   4.002   3.948   3.455 -1.1418  1.3777 -0.8290
 2119SOL     OW 6948   2.183   5.195   0.693  0.1948 -0.4369  0.2712
 2119SOL    HW1 6949   2.200   5.241   0.611  1.5473  1.0202  1.3255
 2119SOL    HW2 6950   2.212   5.255   0.761 -1.5251 -1.3272  1.8845
 2120SOL     OW 6951   3.098   0.145   1.470  0.5648 -0.3601 -0.2112
 2120SOL    HW1 6952   3.016   0.153   1.518  0.5430  0.7991 -0.4190
 2120SOL    HW2 6953   3.079   0.085   1.398  0.5131 -1.8821  1.0058
 2121SOL     OW 6954   4.046   4.257   2.990 -0.1448  0.0005  0.5970
 2121SOL    HW1 6955   4.138   4.275   2.971 -0.3087 -0.0962 -0.3385
 2121SOL    HW2 6956   4.047   4.214   3.076  0.8416 -1.4432 -0.0914
 2122SOL     OW 6957   3.426   2.852   1.526  0.1118 -0.5686  0.3021
 2122SOL    HW1 6958   3.440   2.790   1.454 -1.5144 -0.8501  0.1780
 2122SOL    HW2 6959   3.480   2.928   1.503 -1.1405 -0.2338 -1.7928
 2123SOL     OW 6960   3.139   4.521   0.708 -0.1138 -0.3171 -0.4826
 2123SOL    HW1 6961   3.092   4.520   0.791  0.1312  1.7677 -0.2637
 2123SOL    HW2 6962   3.179   4.608   0.704  1.9178 -1.2202 -1.6654
 2124SOL     OW 6963   3.225   0.123   2.782 -0.0879  0.0455 -0.1565
 2124SOL    HW1 6964   3.137   0.160   2.768  0.1911  0.8365  0.1714
 2124SOL    HW2 6965   3.275   0.194   2.822  0.0243 -1.1673  1.9461
 2125SOL     OW 6966   3.313   4.969   0.920  0.2981 -0.4718  0.3815
 2125SOL    HW1 6967   3.374   5.027   0.874 -0.3703 -0.6508 -0.7941
 2125SOL    HW2 6968   3.237   5.024   0.937  1.2452  0.1572  3.1099
 2126SOL     OW 6969   3.216   1.195   2.083  0.2980  0.8339  1.0319
 2126SOL    HW1 6970   3.247   1.245   2.008 -0.1052  0.5977  0.7034
 2126SOL    HW2 6971   3.187   1.261   2.147 -0.8650  1.0258  0.3343
 2127SOL     OW 6972   4.022   5.269   3.368 -0.6041  0.0219  0.0425
 2127SOL    HW1 6973   4.110   5.297   3.345 -0.3846 -0.9171 -0.3190
 2127SOL    HW2 6974   3.965   5.319   3.310 -0.2317 -0.2078 -0.5284
 2128SOL     OW 6975   1.327   4.494   3.439  0.7245  1.0160  0.1954
 2128SOL    HW1 6976   1.293   4.524   3.524  0.5645  0.8931  0.1746
 2128SOL    HW2 6977   1.248   4.475   3.388  0.8207  1.1572 -0.0039
 2129SOL     OW 6978   1.607   4.526   1.606  0.0117  0.5656  0.4132
 2129SOL    HW1 6979   1.671   4.507   1.537 -0.8933 -0.9422 -0.0734
 2129SOL    HW2 6980   1.587   4.619   1.596 -2.0974 -0.0691 -3.2341
 2130SOL     OW 6981   2.087   0.072   1.840 -0.6538 -0.0565 -0.2597
 2130SOL    HW1 6982   2.065  -0.013   1.804 -0.9280  0.2975 -0.9338
 2130SOL    HW2 6983   2.181   0.081   1.826 -0.6738 -0.1272 -0.4332
 2131SOL     OW 6984   4.577   1.457   2.893 -0.3610  0.0124  0.2986
 2131SOL    HW1 6985   4.505   1.496   2.844  0.1240  0.1844 -0.2813
 2131SOL    HW2 6986   4.557   1.363   2.895 -0.4038  0.0131 -0.1752
 2132SOL     OW 6987   3.715   5.199   1.556 -0.3349 -0.4074  0.3676
 2132SOL    HW1 6988   3.648   5.259   1.524 -1.6579 -1.3801  1.2443
 2132SOL    HW2 6989   3.776   5.191   1.482 -1.4484  0.1002 -0.6435
 2133SOL     OW 6990   2.156   0.109   0.239  0.1088 -0.4142  0.5195
 2133SOL    HW1 6991   2.148   0.074   0.151 -0.2788 -0.5884  0.6252
 2133SOL    HW2 6992   2.246   0.143   0.243 -0.3014  0.8754 -0.4109
 2134SOL     OW 6993   4.350   4.499   0.973 -0.1925 -0.2428 -0.0012
 2134SOL    HW1 6994   4.397   4.427   0.931 -0.6050 -0.1808 -0.5728
 2134SOL    HW2 6995   4.419   4.549   1.017  0.3578  0.1787 -1.3142
 2135SOL     OW 6996   4.055   0.355   1.285 -0.1496 -0.0516  0.5219
 2135SOL    HW1 6997   3.966   0.321   1.287  0.1062 -0.9214 -0.9686
 2135SOL    HW2 6998   4.044   0.450   1.288 -1.0639 -0.1687  1.3530
 2136SOL     OW 6999   4.926   0.905   1.572  0.1139  0.0121  0.5415
 2136SOL    HW1 7000   4.994   0.903   1.505  2.3821  0.6287  2.6785
 2136SOL    HW2 7001   4.920   0.997   1.597 -1.7316  0.0089  0.2543
 2137SOL     OW 7002   4.164   4.055   0.298 -0.0494 -0.0294 -0.5594
 2137SOL    HW1 7003   4.166   3.960   0.294  0.3083  0.0291 -2.0023
 2137SOL    HW2 7004   4.247   4.079   0.338  0.7686 -0.2567 -2.0726
 2138SOL     OW 7005   2.392   0.791   3.141 -0.1033 -0.5950  0.0138
 2138SOL    HW1 7006   2.421   0.840   3.218 -2.3149 -1.9106  1.7926
 2138SOL    HW2 7007   2.470   0.746   3.110  0.9497  0.4146  1.0985
 2139SOL     OW 7008   2.527   3.520   3.456  0.1457  0.3391 -0.5737
 2139SOL    HW1 7009   2.541   3.608   3.490  2.5364  0.1587 -0.9386
 2139SOL    HW2 7010   2.440   3.496   3.488 -0.2085  2.4831  0.2468
 2140SOL     OW 7011   4.268   4.969   2.774 -0.0699 -0.0872  0.1918
 2140SOL    HW1 7012   4.244   5.045   2.827 -0.1411  1.0016 -1.3622
 2140SOL    HW2 7013   4.190   4.914   2.774  0.6576 -1.3610  3.1723
 2141SOL     OW 7014   1.435   3.305   3.111  0.1367 -0.6353 -0.4401
 2141SOL    HW1 7015   1.523   3.340   3.125 -0.5498  0.9448  0.0701
 2141SOL    HW2 7016   1.426   3.236   3.177  0.3430  0.4341  0.7408
 2142SOL     OW 7017   2.945   5.436   1.675 -0.1195  0.4744  0.4015
 2142SOL    HW1 7018   2.912   5.367   1.618 -0.9004  0.5672  0.7254
 2142SOL    HW2 7019   3.027   5.401   1.711 -0.3864 -0.1851  0.3781
 2143SOL     OW 7020   2.063   4.392   0.863  0.0715  0.5139  0.2175
 2143SOL    HW1 7021   2.030   4.408   0.952 -1.5046  0.4658 -0.3358
 2143SOL    HW2 7022   1.992   4.347   0.819  1.2347 -0.3879 -0.7898
 2144SOL     OW 7023   1.827   4.750   2.979 -0.1565  0.4567  0.5388
 2144SOL    HW1 7024   1.874   4.814   2.926  1.1391 -1.1742 -0.3591
 2144SOL    HW2 7025   1.858   4.665   2.948 -1.6478 -0.6276  1.8471
 2145SOL     OW 7026   2.518   0.308   0.380 -0.3204 -0.2242  0.3713
 2145SOL    HW1 7027   2.540   0.234   0.436 -1.9572 -1.4209 -0.4629
 2145SOL    HW2 7028   2.481   0.267   0.301 -1.5881  1.4858  0.0383
 2146SOL     OW 7029   4.899   5.035   1.731  0.3671  0.2879 -0.4966
 2146SOL    HW1 7030   4.894   5.004   1.640  0.0387  1.3152 -0.8426
 2146SOL    HW2 7031   4.946   5.118   1.725 -1.3304  1.3219  0.0211
 2147SOL     OW 7032   2.641   0.396   3.171  0.5536  0.5900  0.1443
 2147SOL    HW1 7033   2.597   0.320   3.134 -1.5836  1.5136  0.6232
 2147SOL    HW2 7034   2.714   0.360   3.220 -0.4434 -1.1886  0.4220
 2148SOL     OW 7035   3.578   4.289   1.528 -0.4229 -0.6342 -0.0218
 2148SOL    HW1 7036   3.589   4.196   1.547  1.0923 -0.1335  1.9811
 2148SOL    HW2 7037   3.524   4.322   1.600  1.2024  0.4441  0.7873
 2149SOL     OW 7038   3.319   3.588   0.848  0.5539  0.3552  0.0785
 2149SOL    HW1 7039   3.394   3.562   0.793 -0.5062 -0.1183 -1.2075
 2149SOL    HW2 7040   3.332   3.681   0.863  1.0788  0.4124 -0.6702
 2150SOL     OW 7041   3.524   3.257   2.913 -0.1109  0.0093 -0.2599
 2150SOL    HW1 7042   3.598   3.198   2.897  0.1319  0.4290 -0.7316
 2150SOL    HW2 7043   3.477   3.258   2.829  0.1600  0.8571 -0.4070
 2151SOL     OW 7044   4.107   3.425   2.961  0.0619 -0.1178  0.2124
 2151SOL    HW1 7045   4.056   3.461   2.889  2.1952  1.7188 -0.5054
 2151SOL    HW2 7046   4.191   3.403   2.921  0.8333 -0.3152  1.8815
 2152SOL     OW 7047   4.471   4.796   2.860 -0.2450  0.1412  0.0673
 2152SOL    HW1 7048   4.415   4.739   2.912  0.1197 -0.4383 -0.1684
 2152SOL    HW2 7049   4.411   4.856   2.815 -0.6672 -0.4165 -0.1125
 2153SOL     OW 7050   4.431   0.472   3.357  0.3530  0.0639 -0.5870
 2153SOL    HW1 7051   4.448   0.396   3.412 -0.6700  0.5644  0.4915
 2153SOL    HW2 7052   4.498   0.470   3.290  3.0091  0.5326  1.8578
 2154SOL     OW 7053   2.885   3.025   1.525  0.3022 -0.4728 -0.4756
 2154SOL    HW1 7054   2.842   3.102   1.489  0.1116 -0.8365 -1.0437
 2154SOL    HW2 7055   2.977   3.050   1.532  0.1745 -0.0601 -0.2754
 2155SOL     OW 7056   3.184   0.428   0.311 -0.4970 -0.1203 -0.0277
 2155SOL    HW1 7057   3.185   0.447   0.217 -0.3563 -2.6891 -0.6306
 2155SOL    HW2 7058   3.275   0.410   0.334 -0.7582 -1.4498  0.0917
 2156SOL     OW 7059   2.528   4.104   1.553  0.2702 -0.5878  0.3357
 2156SOL    HW1 7060   2.509   4.010   1.552  0.4938 -0.6292 -0.5701
 2156SOL    HW2 7061   2.465   4.142   1.491  0.0790 -0.1142  0.8109
 2157SOL     OW 7062   4.310   4.434   0.367  0.3386  0.0286 -0.0276
 2157SOL    HW1 7063   4.284   4.394   0.284  1.6067  0.2149 -0.5463
 2157SOL    HW2 7064   4.339   4.522   0.343  1.8419 -0.3191  0.4069
 2158SOL     OW 7065   2.439   3.001   2.356  0.0931  0.1774  0.7591
 2158SOL    HW1 7066   2.484   2.934   2.409 -0.9519  0.0084  1.4604
 2158SOL    HW2 7067   2.482   3.083   2.380 -0.6380  0.1578  2.1944
 2159SOL     OW 7068   4.741   4.297   1.813  0.7764 -0.1894  0.7600
 2159SOL    HW1 7069   4.677   4.368   1.814 -0.4373 -1.1999 -0.1863
 2159SOL    HW2 7070   4.780   4.298   1.900  0.2801  1.1781  0.9932
 2160SOL     OW 7071   2.056   4.758   1.632 -0.4554 -0.2758 -0.3758
 2160SOL    HW1 7072   2.150   4.774   1.641 -0.6402  0.7675 -0.1584
 2160SOL    HW2 7073   2.044   4.669   1.665  0.3489 -0.1529  0.3054
 2161SOL     OW 7074   2.894   5.143   1.809  0.0842  0.0867  0.3693
 2161SOL    HW1 7075   2.951   5.196   1.865  0.4070  0.6334 -0.4556
 2161SOL    HW2 7076   2.949   5.071   1.780  0.9164  1.4633 -1.7175
 2162SOL     OW 7077   3.616   1.741   1.922 -1.2581  0.3703  0.2802
 2162SOL    HW1 7078   3.658   1.827   1.933 -0.4521  0.0556 -0.2706
 2162SOL    HW2 7079   3.679   1.679   1.959 -1.2810 -0.1040 -0.4576
 2163SOL     OW 7080   3.315   3.343   1.610  0.5591  0.2042 -0.2313
 2163SOL    HW1 7081   3.272   3.428   1.606  0.8993  0.3478 -1.1192
 2163SOL    HW2 7082   3.331   3.320   1.518 -1.9628 -2.0647 -0.2418
 2164SOL     OW 7083   2.599   0.602   1.018 -0.7691 -0.0588 -0.2388
 2164SOL    HW1 7084   2.615   0.696   1.023 -0.9213 -0.0869  1.2324
 2164SOL    HW2 7085   2.644   0.574   0.939 -0.6073  1.2243 -0.6248
 2165SOL     OW 7086   2.964   3.888   2.380 -0.1186 -0.3705  0.0726
 2165SOL    HW1 7087   2.910   3.809   2.371 -0.3210  0.0357 -3.2914
 2165SOL    HW2 7088   3.044   3.868   2.332  1.9846 -0.1687  3.1991
 2166SOL     OW 7089   4.630   0.218   2.727 -0.5471 -0.4116  0.8209
 2166SOL    HW1 7090   4.665   0.296   2.683 -0.7403  0.2674  1.8392
 2166SOL    HW2 7091   4.692   0.200   2.797 -1.0824 -0.5050  1.2793
 2167SOL     OW 7092   3.371   3.921   3.337  0.2113  0.1778  0.0650
 2167SOL    HW1 7093   3.345   3.950   3.250 -3.3527 -0.9662  0.5609
 2167SOL    HW2 7094   3.361   3.999   3.392  0.9876  0.5366 -0.2961
 2168SOL     OW 7095   2.411   5.347   3.394 -0.7167 -0.2229  0.0421
 2168SOL    HW1 7096   2.412   5.346   3.490  0.3157  0.4938  0.0593
 2168SOL    HW2 7097   2.379   5.261   3.370  1.5075 -1.4295  1.0475
 2169SOL     OW 7098   2.655   5.232   0.485  0.3812 -0.3164 -0.1402
 2169SOL    HW1 7099   2.690   5.164   0.428  0.9724  1.1321 -1.6128
 2169SOL    HW2 7100   2.681   5.314   0.442  0.2109  0.8431  1.8562
 2170SOL     OW 7101   2.977   4.484   0.093 -0.3925  0.2079 -0.5257
 2170SOL    HW1 7102   3.066   4.508   0.068  0.0616 -1.6571 -0.8636
 2170SOL    HW2 7103   2.944   4.561   0.140  1.4775  0.8523 -0.1630
 2171SOL     OW 7104   2.605   3.488   1.786 -0.0427 -0.2952 -0.4714
 2171SOL    HW1 7105   2.647   3.479   1.701  0.8439  1.8441 -0.3080
 2171SOL    HW2 7106   2.566   3.575   1.785  1.6980  0.6165  2.0037
 2172SOL     OW 7107   3.406   0.464   2.543  0.0351  0.0861 -0.3070
 2172SOL    HW1 7108   3.311   0.470   2.552  0.2214  0.1483  2.4996
 2172SOL    HW2 7109   3.428   0.377   2.577  1.0642  0.4099 -0.0972
 2173SOL     OW 7110   3.441   3.771   2.223  0.3117  0.5375  0.2316
 2173SOL    HW1 7111   3.510   3.791   2.160  0.9201  0.1765  0.7741
 2173SOL    HW2 7112   3.487   3.762   2.307 -0.6527  2.5057  1.0267
 2174SOL     OW 7113   1.705   4.579   0.665 -0.4650 -0.1792  0.5649
 2174SOL    HW1 7114   1.688   4.538   0.750 -0.2418 -1.7577 -0.1189
 2174SOL    HW2 7115   1.728   4.506   0.607 -2.3551  0.6348 -1.3250
 2175SOL     OW 7116   2.955   4.276   0.843  0.6155 -0.2561  0.6927
 2175SOL    HW1 7117   2.883   4.315   0.794  1.8750  0.9119 -0.3138
 2175SOL    HW2 7118   2.987   4.347   0.899  0.2627 -1.0998  2.0128
 2176SOL     OW 7119   1.202   0.209   2.314  0.2798  0.4432 -0.3029
 2176SOL    HW1 7120   1.156   0.211   2.230 -1.0149  1.8872  0.3803
 2176SOL    HW2 7121   1.176   0.127   2.354 -0.9675  0.7903 -0.3571
 2177SOL     OW 7122   3.783   3.401   0.913 -0.4960  0.1220  0.3675
 2177SOL    HW1 7123   3.711   3.353   0.873 -1.8711  2.2405  0.1899
 2177SOL    HW2 7124   3.742   3.458   0.977  1.0966  0.9714  0.6927
 2178SOL     OW 7125   4.836   4.148   0.057 -0.0857 -0.1102 -0.0682
 2178SOL    HW1 7126   4.803   4.237   0.071 -0.9743 -0.7281  2.1976
 2178SOL    HW2 7127   4.794   4.119  -0.024 -0.8877  1.0511 -0.0920
 2179SOL     OW 7128   1.383   5.257   2.258 -0.7477 -0.2060 -0.1669
 2179SOL    HW1 7129   1.311   5.298   2.211 -0.5832 -0.7887 -0.9578
 2179SOL    HW2 7130   1.345   5.177   2.295 -0.1405 -1.4543 -2.0759
 2180SOL     OW 7131   3.050   1.566   1.671 -0.0213 -0.1096  0.3041
 2180SOL    HW1 7132   2.985   1.591   1.738  0.5136 -0.2894  0.9001
 2180SOL    HW2 7133   3.092   1.649   1.647  1.1322 -0.2770  1.6281
 2181SOL     OW 7134   3.979   3.899   0.528  0.2816 -0.1571  0.0458
 2181SOL    HW1 7135   3.974   3.875   0.621  1.1503  1.5681  0.5833
 2181SOL    HW2 7136   4.066   3.869   0.501  0.9895  1.3964  0.4686
 2182SOL     OW 7137   0.458   4.344   3.080 -0.3632 -0.0068 -0.4551
 2182SOL    HW1 7138   0.451   4.397   3.001 -0.9785  0.3834 -0.1513
 2182SOL    HW2 7139   0.546   4.361   3.113 -0.4024  0.4878 -0.6008
 2183SOL     OW 7140   2.847   3.372   0.353 -0.1939  0.1262  0.2715
 2183SOL    HW1 7141   2.829   3.323   0.433  0.4221 -0.6491 -0.0473
 2183SOL    HW2 7142   2.936   3.407   0.366 -1.2497  2.6943  1.2350
 2184SOL     OW 7143   4.353   0.623   1.086 -0.7127  0.1115 -0.0097
 2184SOL    HW1 7144   4.365   0.571   1.007  2.7539 -1.3015  1.2406
 2184SOL    HW2 7145   4.269   0.595   1.121 -0.6703 -1.8676 -1.3596
 2185SOL     OW 7146   4.589   4.790   2.263  0.7837 -0.0838 -0.3331
 2185SOL    HW1 7147   4.581   4.709   2.313  2.5798 -1.6384 -2.4017
 2185SOL    HW2 7148   4.550   4.771   2.178 -2.1986  2.5011  0.2417
 2186SOL     OW 7149   2.977   5.203   0.487 -0.1250  0.2489 -0.0574
 2186SOL    HW1 7150   2.909   5.265   0.462  0.4639  0.6210 -0.7685
 2186SOL    HW2 7151   3.028   5.189   0.407  0.7791  0.1675  0.5168
 2187SOL     OW 7152   1.385   4.587   2.866 -0.2516 -0.5270  0.0863
 2187SOL    HW1 7153   1.465   4.636   2.848 -0.8635 -0.1302 -1.8319
 2187SOL    HW2 7154   1.407   4.530   2.939  1.9663 -0.8406 -0.7502
 2188SOL     OW 7155   4.010   3.614   0.101  0.2737  0.3505  0.1416
 2188SOL    HW1 7156   4.021   3.653   0.015 -0.5871  1.0116  0.3135
 2188SOL    HW2 7157   4.074   3.543   0.104  0.4636  0.4592 -0.9503
 2189SOL     OW 7158   3.709   4.674   2.773  0.4297  0.4625 -0.1488
 2189SOL    HW1 7159   3.804   4.681   2.786  0.5184  0.6668 -0.8878
 2189SOL    HW2 7160   3.694   4.714   2.688 -0.0306 -1.7326 -1.1455
 2190SOL     OW 7161   3.207   4.155   0.799  0.1515 -0.6125 -0.3340
 2190SOL    HW1 7162   3.198   4.108   0.717  0.5519 -2.1578  0.4727
 2190SOL    HW2 7163   3.124   4.203   0.808  0.2707 -0.1090 -1.8073
 2191SOL     OW 7164   2.783   0.075   1.949 -0.1171  0.3068 -0.3604
 2191SOL    HW1 7165   2.872   0.042   1.939 -1.0825 -1.9800 -2.5457
 2191SOL    HW2 7166   2.768   0.128   1.870 -0.5066  1.1863  0.2902
 2192SOL     OW 7167   1.489   4.093   0.251  0.3434  0.0964 -0.2530
 2192SOL    HW1 7168   1.452   4.164   0.304 -3.8670 -0.9357 -1.4353
 2192SOL    HW2 7169   1.493   4.128   0.163 -1.9022 -0.9683 -0.8764
 2193SOL     OW 7170   2.490   4.871   0.363 -0.3566  0.0971  0.2466
 2193SOL    HW1 7171   2.470   4.923   0.440  2.8432  1.3363  0.3989
 2193SOL    HW2 7172   2.550   4.803   0.394  0.1476 -0.0380 -0.9384
 2194SOL     OW 7173   2.578   5.028   2.615 -0.7029  0.1267  0.3811
 2194SOL    HW1 7174   2.580   5.120   2.587  2.2673 -0.1737 -0.7363
 2194SOL    HW2 7175   2.629   5.027   2.696 -0.2889 -0.5701  0.1219
 2195SOL     OW 7176   1.917   3.804   0.254 -0.1570 -0.0946  0.1783
 2195SOL    HW1 7177   1.898   3.710   0.261 -1.9743  0.2525  0.5816
 2195SOL    HW2 7178   1.936   3.818   0.161 -0.0707 -0.8239  0.0813
 2196SOL     OW 7179   4.586   3.590   1.613 -0.3237 -0.3491 -0.3614
 2196SOL    HW1 7180   4.510   3.621   1.662  1.0564 -0.0934  1.8027
 2196SOL    HW2 7181   4.627   3.669   1.579 -0.5077 -0.4020 -0.7061
 2197SOL     OW 7182   1.707   3.729   1.704  0.3933  0.1037 -0.3380
 2197SOL    HW1 7183   1.661   3.702   1.624  1.8718 -1.1878 -0.7975
 2197SOL    HW2 7184   1.675   3.818   1.720 -0.1320  0.3143 -2.2300
 2198SOL     OW 7185   2.421   3.459   0.368  0.2543  0.2216 -0.1322
 2198SOL    HW1 7186   2.427   3.393   0.298 -1.2477 -0.6949  0.5464
 2198SOL    HW2 7187   2.504   3.507   0.363  1.0518 -1.1820 -1.1868
 2199SOL     OW 7188   2.146   0.984   3.378 -0.2170 -0.1428 -0.3581
 2199SOL    HW1 7189   2.203   0.995   3.454 -0.0246  0.4899 -0.5792
 2199SOL    HW2 7190   2.111   0.896   3.386  0.5930 -0.4510 -0.0741
 2200SOL     OW 7191   2.850   3.637   2.350 -0.0001  0.4486 -0.5782
 2200SOL    HW1 7192   2.886   3.583   2.279 -1.1784  0.6035 -1.3179
 2200SOL    HW2 7193   2.883   3.596   2.430 -0.1181 -0.8204 -1.1579
 2201SOL     OW 7194   3.412   4.425   2.755 -0.4986  0.1239 -0.0224
 2201SOL    HW1 7195   3.394   4.384   2.670 -1.5932  0.2338  0.1424
 2201SOL    HW2 7196   3.397   4.518   2.739  1.2401  0.4098 -0.2006
 2202SOL     OW 7197   0.873   3.400   0.582  0.2893 -0.3335 -0.3662
 2202SOL    HW1 7198   0.927   3.389   0.504  1.1270 -2.2075  0.4272
 2202SOL    HW2 7199   0.878   3.494   0.601  1.9104 -0.1930 -1.2754
 2203SOL     OW 7200   2.997   2.179   0.086 -0.5614  0.2295 -0.4774
 2203SOL    HW1 7201   3.045   2.249   0.041  0.0759  0.6292  0.7742
 2203SOL    HW2 7202   2.930   2.226   0.136  0.2382  0.0245  0.8294
 2204SOL     OW 7203   3.037   3.943   1.528  0.0438 -0.0584  0.5766
 2204SOL    HW1 7204   2.998   3.995   1.457 -0.7566 -1.7022 -0.2415
 2204SOL    HW2 7205   3.131   3.950   1.513 -0.0588  0.9832  0.3634
 2205SOL     OW 7206   4.771   0.437   2.600 -0.1224  0.6147  0.1172
 2205SOL    HW1 7207   4.737   0.470   2.684 -0.0850  1.2337 -0.1058
 2205SOL    HW2 7208   4.860   0.408   2.621  0.2709  1.7539  0.0753
 2206SOL     OW 7209   3.632   0.540   1.340  0.2522 -0.0263  0.3052
 2206SOL    HW1 7210   3.574   0.587   1.400  1.0211  0.8121  0.4190
 2206SOL    HW2 7211   3.720   0.569   1.364  0.6383 -0.3649 -0.6379
 2207SOL     OW 7212   3.184   0.063   1.054 -0.2742  0.3470 -0.5062
 2207SOL    HW1 7213   3.219   0.087   1.140  1.1156 -1.0099 -0.6587
 2207SOL    HW2 7214   3.247   0.098   0.991  0.0642 -0.8590 -0.8548
 2208SOL     OW 7215   6.907   2.093   3.289  0.0665  0.4546  0.1266
 2208SOL    HW1 7216   7.000   2.107   3.304  0.3278 -1.1389  0.0760
 2208SOL    HW2 7217   6.886   2.014   3.338 -1.7037  1.8054  1.7095
 2209SOL     OW 7218   4.165   5.393   2.767  0.0173 -0.0697 -0.1197
 2209SOL    HW1 7219   4.257   5.371   2.778  0.1290 -0.0141 -0.8568
 2209SOL    HW2 7220   4.147   5.376   2.674 -0.0980  2.1549 -0.5625
 2210SOL     OW 7221   3.160   4.643   1.607 -0.1030 -0.0099 -0.0364
 2210SOL    HW1 7222   3.198   4.730   1.595 -0.3165  0.2290  0.8820
 2210SOL    HW2 7223   3.095   4.635   1.537  0.2232  0.3894 -0.3910
 2211SOL     OW 7224   2.776   4.491   2.526  0.3024 -0.2157 -0.3472
 2211SOL    HW1 7225   2.843   4.443   2.478  0.3994 -0.5783  0.1346
 2211SOL    HW2 7226   2.809   4.580   2.533 -0.0553  0.0311 -1.5893
 2212SOL     OW 7227   3.305   0.525   3.141  0.0781 -0.6899  0.1120
 2212SOL    HW1 7228   3.385   0.518   3.194  0.7655 -0.2802 -0.8386
 2212SOL    HW2 7229   3.283   0.618   3.143  1.0966 -0.3675 -1.6877
 2213SOL     OW 7230   3.268   0.992   2.295  0.3364 -0.1081  0.2487
 2213SOL    HW1 7231   3.230   1.055   2.233  0.6702  0.2159  0.3719
 2213SOL    HW2 7232   3.279   0.912   2.243 -1.0136 -0.3838  0.3477
 2214SOL     OW 7233   3.286   4.451   1.008 -0.0161 -0.1637 -0.0499
 2214SOL    HW1 7234   3.321   4.389   0.945 -0.1852 -0.2947 -0.0158
 2214SOL    HW2 7235   3.321   4.536   0.980 -0.0183 -0.2336 -0.2660
 2215SOL     OW 7236   1.995   0.505   0.118 -0.2741 -0.0759  0.0695
 2215SOL    HW1 7237   1.986   0.597   0.095 -2.2117  0.0802  1.1966
 2215SOL    HW2 7238   2.017   0.506   0.211  2.4238 -0.7579 -0.4788
 2216SOL     OW 7239   5.135   0.234   1.227 -0.3259 -0.1731  0.2750
 2216SOL    HW1 7240   5.094   0.149   1.212 -1.5605  0.3703  0.4631
 2216SOL    HW2 7241   5.062   0.295   1.232  0.5937  1.2072 -1.7080
 2217SOL     OW 7242   1.638   0.078   3.029  0.2964  0.0704 -0.3384
 2217SOL    HW1 7243   1.618  -0.014   3.045 -0.7858  0.5409  1.3746
 2217SOL    HW2 7244   1.567   0.109   2.972 -0.3448  0.2267  0.5181
 2218SOL     OW 7245   2.180   4.221   0.107  0.4181 -0.1678 -0.0408
 2218SOL    HW1 7246   2.180   4.217   0.202  2.3120 -1.4818 -0.0277
 2218SOL    HW2 7247   2.212   4.309   0.086 -1.7105  0.7814  0.4590
 2219SOL     OW 7248   3.749   2.119   2.418 -0.0624 -0.4117 -0.2783
 2219SOL    HW1 7249   3.735   2.083   2.330 -1.7521  0.3310 -0.3617
 2219SOL    HW2 7250   3.830   2.078   2.448  1.0756  0.0126 -2.5343
 2220SOL     OW 7251   2.174   3.199   2.766  0.1911 -0.0375  0.6649
 2220SOL    HW1 7252   2.114   3.270   2.790  1.0480  1.5045 -1.3589
 2220SOL    HW2 7253   2.162   3.190   2.671  0.9465 -1.8357  0.7073
 2221SOL     OW 7254   3.659   1.143   0.929  0.1094  0.1921 -0.1979
 2221SOL    HW1 7255   3.571   1.106   0.941 -0.6872  2.8105  3.6589
 2221SOL    HW2 7256   3.718   1.076   0.964 -0.5724 -0.5106 -0.3554
 2222SOL     OW 7257   1.297   0.037   0.898  0.5366 -0.3343 -0.6043
 2222SOL    HW1 7258   1.312  -0.018   0.975  3.5733  1.0457 -0.0815
 2222SOL    HW2 7259   1.238  -0.016   0.843 -0.9989 -1.7678  2.1475
 2223SOL     OW 7260   2.784   4.566   0.834  0.5681 -0.1579 -0.0080
 2223SOL    HW1 7261   2.850   4.511   0.877  1.0502 -0.5254 -1.1789
 2223SOL    HW2 7262   2.701   4.524   0.856  0.8147 -0.4398  0.4157
 2224SOL     OW 7263   3.624   3.039   2.568 -0.6338  0.4280  0.1077
 2224SOL    HW1 7264   3.543   3.013   2.524 -1.0781  0.0782  1.0937
 2224SOL    HW2 7265   3.668   2.956   2.588 -0.5195  0.5745  0.4734
 2225SOL     OW 7266   4.408   0.447   2.058 -0.0431 -0.1557  0.5813
 2225SOL    HW1 7267   4.412   0.399   2.141  1.7756 -0.3836  0.3911
 2225SOL    HW2 7268   4.377   0.534   2.083  0.8886 -0.0818  1.5830
 2226SOL     OW 7269   2.777   3.250   0.587 -0.1549  0.1520 -0.0311
 2226SOL    HW1 7270   2.765   3.295   0.671 -1.5631 -0.2734  0.0186
 2226SOL    HW2 7271   2.689   3.229   0.557  0.3890 -1.7123 -0.5232
 2227SOL     OW 7272   3.826   3.381   0.006 -0.3681  0.2137  0.1612
 2227SOL    HW1 7273   3.770   3.449  -0.031  0.7202 -0.8395 -3.9609
 2227SOL    HW2 7274   3.915   3.411  -0.011  0.1538 -1.6423 -0.6485
 2228SOL     OW 7275   2.620   4.311   0.881 -0.3698  0.1925  0.3391
 2228SOL    HW1 7276   2.651   4.339   0.967 -0.3331  1.3256 -0.0262
 2228SOL    HW2 7277   2.524   4.310   0.889 -0.3584  0.0901  0.4559
 2229SOL     OW 7278   3.998   4.135   3.229 -0.3820 -0.4285  0.0037
 2229SOL    HW1 7279   3.913   4.125   3.272 -0.6621 -0.1495 -0.4713
 2229SOL    HW2 7280   4.047   4.192   3.288 -1.2197  1.0204 -0.6372
 2230SOL     OW 7281   3.314   5.245   0.089 -0.5671 -0.3897 -0.0795
 2230SOL    HW1 7282   3.288   5.332   0.060 -0.6821 -0.2494  0.4453
 2230SOL    HW2 7283   3.355   5.206   0.012  0.3964  0.4904 -0.0303
 2231SOL     OW 7284   1.502   5.246   3.051  0.0572  0.0018  0.3134
 2231SOL    HW1 7285   1.412   5.251   3.084 -0.0513  0.4060 -0.0369
 2231SOL    HW2 7286   1.494   5.198   2.968 -0.4221  3.2440 -1.6950
 2232SOL     OW 7287   3.077   4.741   1.348 -0.4422  0.1474  0.5744
 2232SOL    HW1 7288   3.069   4.825   1.304 -1.0324 -0.9028 -1.4515
 2232SOL    HW2 7289   3.172   4.724   1.351 -0.1533  1.6965  2.7793
 2233SOL     OW 7290   3.339   0.065   3.141  0.3303  0.2861 -0.1910
 2233SOL    HW1 7291   3.315  -0.006   3.083  1.7008 -0.5195  0.1784
 2233SOL    HW2 7292   3.256   0.095   3.178 -0.3226 -0.7442 -0.7708
 2234SOL     OW 7293   4.320   4.823   0.863  0.2355  0.5201  0.0967
 2234SOL    HW1 7294   4.318   4.762   0.937  2.5578 -1.0572 -1.0080
 2234SOL    HW2 7295   4.300   4.908   0.901  1.8663 -0.1404  2.6761
 2235SOL     OW 7296   6.987   2.939   2.949  0.1521  0.1629  0.4277
 2235SOL    HW1 7297   6.911   2.915   2.895  0.4415 -1.7819  0.8108
 2235SOL    HW2 7298   7.044   2.988   2.889  0.0069 -1.0707 -0.7668
 2236SOL     OW 7299   4.619   4.889   0.087  0.5198 -0.6340 -0.1364
 2236SOL    HW1 7300   4.665   4.891   0.003  1.0371 -0.0378  0.1479
 2236SOL    HW2 7301   4.595   4.980   0.103  1.2455 -0.5869  0.7930
 2237SOL     OW 7302   4.659   5.324   3.263  0.3831 -0.5860  0.0932
 2237SOL    HW1 7303   4.713   5.288   3.333  1.6604 -2.2481 -1.6420
 2237SOL    HW2 7304   4.706   5.302   3.182 -2.4998 -1.4239 -1.4929
 2238SOL     OW 7305   6.152   0.430   2.253  0.4395 -0.2738 -0.2906
 2238SOL    HW1 7306   6.130   0.444   2.345  0.3588  0.2275 -0.3864
 2238SOL    HW2 7307   6.145   0.335   2.241 -0.6884 -0.2289 -0.0759
 2239SOL     OW 7308   4.911   0.938   1.228 -0.0098  0.3677 -0.2356
 2239SOL    HW1 7309   4.921   0.882   1.151 -0.5595  1.5187 -1.1653
 2239SOL    HW2 7310   4.817   0.939   1.246  0.2252 -1.1830  1.4863
 2240SOL     OW 7311   4.361   4.811   1.199  0.1629  0.4217 -0.4222
 2240SOL    HW1 7312   4.274   4.778   1.220 -0.6678  1.8613 -1.3528
 2240SOL    HW2 7313   4.382   4.870   1.271 -0.6966  1.8615 -1.2911
 2241SOL     OW 7314   4.804   1.365   2.251  0.3855 -0.0598  0.6464
 2241SOL    HW1 7315   4.890   1.395   2.223  0.3820 -0.2336  0.4419
 2241SOL    HW2 7316   4.819   1.280   2.292  0.1873 -0.6076 -0.3748
 2242SOL     OW 7317   6.952   4.450   0.208  0.5095 -0.3970  0.7436
 2242SOL    HW1 7318   6.939   4.522   0.270  1.3098 -0.1341  0.6188
 2242SOL    HW2 7319   7.039   4.416   0.230  0.5421 -0.6900  0.1618
 2243SOL     OW 7320   3.125   0.746   2.996 -0.4333 -0.1420  0.0509
 2243SOL    HW1 7321   3.200   0.733   2.938 -0.4786  0.3422 -0.1251
 2243SOL    HW2 7322   3.084   0.827   2.964 -1.4408 -0.7717 -0.3074
 2244SOL     OW 7323   5.308   0.935   2.373 -0.3563  0.1515  0.1904
 2244SOL    HW1 7324   5.215   0.915   2.374 -0.2410 -0.3852  0.2237
 2244SOL    HW2 7325   5.330   0.949   2.465 -1.3730  4.9223 -0.0412
 2245SOL     OW 7326   1.482   1.878   0.106 -0.4537 -0.0624  0.8956
 2245SOL    HW1 7327   1.538   1.908   0.035  1.0839  0.0970  2.1279
 2245SOL    HW2 7328   1.393   1.886   0.071  0.1854  1.1099 -0.5863
 2246SOL     OW 7329   1.384   0.889   1.471  0.1723  0.1220 -0.2472
 2246SOL    HW1 7330   1.372   0.967   1.525 -1.5323 -0.1358 -0.1927
 2246SOL    HW2 7331   1.441   0.917   1.399  1.0511  0.9193  0.7347
 2247SOL     OW 7332   5.153   1.591   2.801  0.2141  0.3991 -0.1254
 2247SOL    HW1 7333   5.244   1.592   2.773 -0.1208 -2.3982 -1.6908
 2247SOL    HW2 7334   5.106   1.640   2.734  0.4708  1.3871  0.4012
 2248SOL     OW 7335   5.211   0.526   2.594  0.1203 -0.2479 -0.0108
 2248SOL    HW1 7336   5.202   0.610   2.639 -1.5262 -0.3296 -0.1403
 2248SOL    HW2 7337   5.225   0.549   2.503 -0.0725 -0.1191 -0.0066
 2249SOL     OW 7338   5.585   0.448   2.164  0.2929  0.6265 -0.5518
 2249SOL    HW1 7339   5.550   0.524   2.118  1.6072  2.4283  1.2457
 2249SOL    HW2 7340   5.659   0.420   2.111  0.2293  1.0607 -0.8748
 2250SOL     OW 7341   2.551   1.504   0.907  0.2649  0.0327  0.2769
 2250SOL    HW1 7342   2.527   1.591   0.874  0.1894  0.0323  0.3301
 2250SOL    HW2 7343   2.494   1.491   0.984 -0.5520 -0.5472 -0.4045
 2251SOL     OW 7344   5.606   1.491   1.918  0.0306  0.2024  0.2678
 2251SOL    HW1 7345   5.630   1.410   1.963 -0.4323  0.2366  0.5932
 2251SOL    HW2 7346   5.640   1.561   1.975  0.8506  0.2375 -0.2555
 2252SOL     OW 7347   1.267   1.794   3.283 -0.2848 -0.3008  0.0321
 2252SOL    HW1 7348   1.268   1.829   3.372  1.3807 -0.1931 -0.0003
 2252SOL    HW2 7349   1.178   1.811   3.252 -0.5066  0.8514  1.2078
 2253SOL     OW 7350   6.069   1.357   0.462 -0.1347 -0.2072  0.0822
 2253SOL    HW1 7351   5.977   1.379   0.477 -0.3544 -1.2839  0.4541
 2253SOL    HW2 7352   6.077   1.351   0.366 -0.2373  0.6931  0.0087
 2254SOL     OW 7353   5.156   0.680   0.702  0.0825 -0.4463  0.9321
 2254SOL    HW1 7354   5.200   0.646   0.780 -0.7651 -2.1076  0.7480
 2254SOL    HW2 7355   5.063   0.667   0.720 -0.1949  0.4493  0.2070
 2255SOL     OW 7356   4.403   1.295   2.141 -0.3906  0.3815  0.5323
 2255SOL    HW1 7357   4.450   1.212   2.140  0.1903  0.7001 -0.4370
 2255SOL    HW2 7358   4.333   1.283   2.205 -0.6819 -1.0605 -0.0209
 2256SOL     OW 7359   2.690   0.962   1.815 -0.4592 -0.1466 -0.0263
 2256SOL    HW1 7360   2.683   0.874   1.778  2.1666  0.3910 -2.0706
 2256SOL    HW2 7361   2.777   0.964   1.856 -0.8391  1.2443  0.7977
 2257SOL     OW 7362   3.797   0.671   1.511  0.3260 -1.0415  0.0492
 2257SOL    HW1 7363   3.713   0.717   1.516  0.9309  0.1450 -0.1144
 2257SOL    HW2 7364   3.862   0.741   1.520  1.3166 -1.6550 -1.9092
 2258SOL     OW 7365   3.517   3.944   2.700 -0.3063  0.2324 -0.8509
 2258SOL    HW1 7366   3.574   3.985   2.635  0.5531 -2.4742 -1.9173
 2258SOL    HW2 7367   3.455   3.892   2.649 -1.3149  0.1304  0.4308
 2259SOL     OW 7368   3.553   0.058   2.020 -0.5317  0.0813 -0.3013
 2259SOL    HW1 7369   3.501  -0.014   1.985 -2.9798  0.1783  2.6836
 2259SOL    HW2 7370   3.641   0.022   2.030 -1.1606 -1.7496 -0.9787
 2260SOL     OW 7371   4.495   1.669   0.043 -0.1395  0.0907  0.4165
 2260SOL    HW1 7372   4.446   1.672  -0.039  0.5842 -0.9016 -0.0725
 2260SOL    HW2 7373   4.430   1.642   0.108 -0.6862  0.7494  0.1584
 2261SOL     OW 7374   6.740   1.095   2.305 -0.0460 -0.2552  0.6977
 2261SOL    HW1 7375   6.723   1.021   2.362 -1.5018 -0.7804 -0.3459
 2261SOL    HW2 7376   6.826   1.078   2.267 -0.0227 -0.9860  1.0734
 2262SOL     OW 7377   4.215   1.896   1.573  0.7341 -0.4885 -0.6473
 2262SOL    HW1 7378   4.305   1.866   1.587  1.3279  1.2608 -0.4098
 2262SOL    HW2 7379   4.167   1.866   1.650  1.0845 -1.5279 -0.8254
 2263SOL     OW 7380   6.262   1.947   3.401  0.3352 -0.2074 -0.7099
 2263SOL    HW1 7381   6.225   1.900   3.476  0.2251 -0.6718 -1.0494
 2263SOL    HW2 7382   6.352   1.966   3.427  0.3077 -0.3944 -0.4707
 2264SOL     OW 7383   5.691   2.811   2.693  0.6941  0.3231  0.3649
 2264SOL    HW1 7384   5.701   2.871   2.619 -0.0467  0.5277  0.4223
 2264SOL    HW2 7385   5.780   2.781   2.712  0.6744 -2.0241 -2.4904
 2265SOL     OW 7386   4.367   3.680   0.139 -0.0440 -0.3404 -0.3158
 2265SOL    HW1 7387   4.346   3.617   0.069 -0.5556 -1.2690  0.6503
 2265SOL    HW2 7388   4.401   3.627   0.210  0.4419  0.5941  0.1692
 2266SOL     OW 7389   5.576   0.339   1.091  0.1838  0.8508  0.5705
 2266SOL    HW1 7390   5.614   0.351   1.003 -2.0815  1.7672 -0.3584
 2266SOL    HW2 7391   5.486   0.310   1.074  0.2824 -0.8596  2.6636
 2267SOL     OW 7392   4.959   2.831   3.123 -0.9290 -0.1713  0.3139
 2267SOL    HW1 7393   4.924   2.894   3.185  1.5929 -0.0533  1.8043
 2267SOL    HW2 7394   4.977   2.881   3.044 -0.3395  0.6757  0.9643
 2268SOL     OW 7395   4.832   1.823   0.257 -0.3318  0.6724  0.0844
 2268SOL    HW1 7396   4.767   1.892   0.272 -0.9368  0.3515 -0.9825
 2268SOL    HW2 7397   4.781   1.742   0.256  0.6185 -0.2044  3.8422
 2269SOL     OW 7398   5.311   2.386   1.855 -0.5087 -0.0445  0.1376
 2269SOL    HW1 7399   5.232   2.333   1.864 -1.3178  1.3325  1.8489
 2269SOL    HW2 7400   5.377   2.327   1.820 -1.7419 -1.7905  0.6562
 2270SOL     OW 7401   3.504   1.566   3.316  0.2015  0.5681  0.5374
 2270SOL    HW1 7402   3.509   1.486   3.262 -2.4307  0.5839  0.1318
 2270SOL    HW2 7403   3.594   1.597   3.321  1.2813 -2.2813  0.4865
 2271SOL     OW 7404   4.676   0.924   2.347  0.4412 -0.0639  0.3081
 2271SOL    HW1 7405   4.623   0.846   2.327 -1.1337  1.1468 -0.4203
 2271SOL    HW2 7406   4.761   0.888   2.373 -0.6433 -2.0772  1.3327
 2272SOL     OW 7407   5.495   0.597   1.719 -0.2384  0.1954 -0.6051
 2272SOL    HW1 7408   5.563   0.535   1.691  0.1514  0.4479 -0.2229
 2272SOL    HW2 7409   5.504   0.670   1.658 -0.7246 -0.1304 -1.0811
 2273SOL     OW 7410   1.717   5.006   2.446 -0.3539  0.3174  0.0049
 2273SOL    HW1 7411   1.696   5.079   2.505 -2.6884  0.7545 -1.2441
 2273SOL    HW2 7412   1.737   5.048   2.362  1.3498 -0.3747  0.0207
 2274SOL     OW 7413   1.427   0.710   1.690 -0.1787 -0.2445  0.0295
 2274SOL    HW1 7414   1.401   0.755   1.610 -0.3951 -1.2067 -0.4663
 2274SOL    HW2 7415   1.513   0.745   1.711 -0.8547  1.2988  0.3823
 2275SOL     OW 7416   4.164   0.567   0.480  0.7602  0.1213  0.0818
 2275SOL    HW1 7417   4.076   0.547   0.512  1.1391  0.2336  1.2380
 2275SOL    HW2 7418   4.197   0.484   0.446  0.9041 -0.3699  1.3752
 2276SOL     OW 7419   6.852   4.947   2.490  0.3315 -0.4941 -0.6676
 2276SOL    HW1 7420   6.777   4.917   2.439 -0.9687  0.4807  0.5892
 2276SOL    HW2 7421   6.864   4.880   2.558 -1.8928  1.1121  1.4762
 2277SOL     OW 7422   5.247   0.955   0.610  0.1434 -0.1869  0.1555
 2277SOL    HW1 7423   5.176   1.013   0.583  0.7001  0.8014  0.7397
 2277SOL    HW2 7424   5.204   0.873   0.633 -0.9030  0.5827  1.0717
 2278SOL     OW 7425   5.169   4.098   2.707 -0.2758  0.0195 -0.1107
 2278SOL    HW1 7426   5.168   4.103   2.612 -0.5723  1.2865 -0.0676
 2278SOL    HW2 7427   5.221   4.021   2.727  1.4739  0.8383 -1.2836
 2279SOL     OW 7428   6.381   1.064   3.329 -0.0635 -0.5734 -0.0840
 2279SOL    HW1 7429   6.350   1.056   3.239 -1.4574 -0.5812  0.3694
 2279SOL    HW2 7430   6.435   0.985   3.343 -0.6063 -1.0497 -0.6166
 2280SOL     OW 7431   2.078   0.907   2.426 -0.1687 -0.1056  0.3939
 2280SOL    HW1 7432   2.171   0.905   2.447  0.1443  0.3662 -0.8601
 2280SOL    HW2 7433   2.034   0.877   2.506  0.9348  1.6382  1.7059
 2281SOL     OW 7434   5.955   0.330   0.777 -0.2166 -0.0192  0.0797
 2281SOL    HW1 7435   5.861   0.346   0.785 -0.3494 -1.0537  0.8696
 2281SOL    HW2 7436   5.961   0.250   0.725  0.2533  0.2470 -0.2826
 2282SOL     OW 7437   4.348   1.067   0.674 -0.5548  0.4220 -0.0383
 2282SOL    HW1 7438   4.428   1.068   0.620 -0.2523  0.1574  0.4059
 2282SOL    HW2 7439   4.373   1.112   0.755 -0.1759 -1.6598  1.0589
 2283SOL     OW 7440   4.200  -0.019   0.969 -0.6216 -0.5103 -0.4860
 2283SOL    HW1 7441   4.278  -0.046   1.018 -0.5409  0.8901  0.2105
 2283SOL    HW2 7442   4.232   0.045   0.906 -1.1299 -0.3070 -0.5423
 2284SOL     OW 7443   5.499   1.194   1.645 -0.2366  0.1014 -0.7671
 2284SOL    HW1 7444   5.422   1.251   1.643 -0.5513 -0.3273 -2.8728
 2284SOL    HW2 7445   5.465   1.108   1.670 -0.1318  0.2992  0.0879
 2285SOL     OW 7446   4.454   2.582   0.091 -0.4893  0.1808 -0.9494
 2285SOL    HW1 7447   4.462   2.653   0.154  2.1780  0.8798 -1.9441
 2285SOL    HW2 7448   4.516   2.603   0.022 -0.1482 -2.7176 -1.6818
 2286SOL     OW 7449   5.406   4.535   2.360 -0.1575  0.4936  0.0026
 2286SOL    HW1 7450   5.430   4.627   2.374 -2.6154  0.8388  3.0602
 2286SOL    HW2 7451   5.328   4.538   2.305 -0.0658  0.2006 -0.1482
 2287SOL     OW 7452   6.021   1.505   0.066 -0.8344  0.2022  0.0944
 2287SOL    HW1 7453   6.075   1.446   0.118 -0.3963  0.2499 -0.3060
 2287SOL    HW2 7454   5.970   1.447   0.009 -0.1009  0.2147 -0.5944
 2288SOL     OW 7455   2.971   0.912   1.380 -0.8339  0.0314 -0.4607
 2288SOL    HW1 7456   2.907   0.972   1.417  2.0071  3.9050 -1.2534
 2288SOL    HW2 7457   3.018   0.877   1.456 -1.2471  0.3446 -0.0548
 2289SOL     OW 7458   4.350  -0.028   1.493  0.0963 -0.6481 -0.0276
 2289SOL    HW1 7459   4.389   0.047   1.538  1.2855 -1.6180  0.6243
 2289SOL    HW2 7460   4.268   0.006   1.457 -0.1885  0.5360  1.6311
 2290SOL     OW 7461   3.156   1.299   0.552  0.1501 -0.0993 -0.2521
 2290SOL    HW1 7462   3.206   1.223   0.521  0.3679 -0.0396 -0.0513
 2290SOL    HW2 7463   3.201   1.374   0.512 -0.4545 -0.1114 -0.9773
 2291SOL     OW 7464   2.837   4.837   0.806  0.2599  0.3514  0.1341
 2291SOL    HW1 7465   2.840   4.744   0.828  3.3803  0.8787  2.6170
 2291SOL    HW2 7466   2.923   4.856   0.768  0.5950  2.5821  1.7578
 2292SOL     OW 7467   5.820   0.025   1.581  0.4475 -0.0483 -0.2302
 2292SOL    HW1 7468   5.834  -0.068   1.600  0.7347  0.1355  0.4726
 2292SOL    HW2 7469   5.732   0.029   1.543  1.4794 -0.9805 -2.9817
 2293SOL     OW 7470   4.166   0.887   0.068  0.7722 -0.3423  0.2301
 2293SOL    HW1 7471   4.132   0.887   0.157  0.9130  1.3333  0.3203
 2293SOL    HW2 7472   4.192   0.796   0.051  0.6276 -0.6997  1.8387
 2294SOL     OW 7473   5.375   3.596   2.125  0.3166 -0.0448  0.1062
 2294SOL    HW1 7474   5.411   3.509   2.109 -3.2548 -1.4551 -1.4707
 2294SOL    HW2 7475   5.356   3.598   2.219 -1.1649 -1.7682 -0.1106
 2295SOL     OW 7476   6.282   0.248   1.238 -0.1357 -0.5842 -0.0318
 2295SOL    HW1 7477   6.211   0.228   1.177  0.3615 -0.3302 -0.7130
 2295SOL    HW2 7478   6.274   0.342   1.255  0.5371 -0.3801 -0.7820
 2296SOL     OW 7479   4.373   1.837   3.008 -0.2230 -0.9915 -0.0229
 2296SOL    HW1 7480   4.339   1.925   2.991 -1.0521 -1.3589 -0.3442
 2296SOL    HW2 7481   4.440   1.824   2.941 -0.6640 -0.9000 -0.4952
 2297SOL     OW 7482   5.702   2.878   3.041 -0.1197  0.0348 -0.2551
 2297SOL    HW1 7483   5.614   2.861   3.008 -0.3204  0.1069  0.2291
 2297SOL    HW2 7484   5.689   2.943   3.110  0.1929 -0.6741  0.4852
 2298SOL     OW 7485   4.572   1.110   2.130 -0.2862 -0.0548  0.0414
 2298SOL    HW1 7486   4.610   1.045   2.190 -0.7945 -1.7032 -1.3814
 2298SOL    HW2 7487   4.645   1.134   2.073 -0.9662 -2.3085 -1.9015
 2299SOL     OW 7488   6.834   0.607   0.384  0.3808  0.1211 -0.0382
 2299SOL    HW1 7489   6.739   0.594   0.395 -0.0730  1.5704 -1.8362
 2299SOL    HW2 7490   6.868   0.608   0.474 -1.1833 -1.0584  0.6302
 2300SOL     OW 7491   4.606   4.546   0.516 -0.5473 -0.1563  0.2912
 2300SOL    HW1 7492   4.689   4.502   0.534  0.6347  1.2424 -1.4225
 2300SOL    HW2 7493   4.551   4.478   0.476 -0.1774 -1.0507  1.2771
 2301SOL     OW 7494   3.877   4.543   0.053 -0.0668  0.0721 -0.2899
 2301SOL    HW1 7495   3.870   4.451   0.078 -1.7462  0.2469  0.0251
 2301SOL    HW2 7496   3.828   4.548  -0.030 -0.9497  0.8748  0.2695
 2302SOL     OW 7497   4.161   0.815   0.337  0.2441  0.5693 -0.1318
 2302SOL    HW1 7498   4.101   0.852   0.402 -0.2429 -0.0629 -0.2129
 2302SOL    HW2 7499   4.181   0.728   0.370  0.6174  0.5391 -0.4351
 2303SOL     OW 7500   4.882   4.717   1.323 -0.1751  0.0600 -0.0423
 2303SOL    HW1 7501   4.833   4.716   1.241  0.4029  0.1662 -0.4004
 2303SOL    HW2 7502   4.883   4.809   1.349  0.2104  0.1281 -0.2779
 2304SOL     OW 7503   6.153   1.661   2.521  0.5748  0.6492 -0.7199
 2304SOL    HW1 7504   6.247   1.672   2.533  0.7901 -0.5857 -1.1888
 2304SOL    HW2 7505   6.133   1.576   2.559 -0.7268  1.7421  1.2314
 2305SOL     OW 7506   6.922   2.674   0.468 -0.0057  0.0870 -0.4278
 2305SOL    HW1 7507   6.833   2.641   0.464  0.1279 -0.4790  0.9120
 2305SOL    HW2 7508   6.977   2.599   0.448  0.2601 -0.3468  1.6903
 2306SOL     OW 7509   4.563   1.334   1.698 -0.0013 -0.1984  0.0969
 2306SOL    HW1 7510   4.531   1.408   1.646  0.2787 -0.1177  0.0411
 2306SOL    HW2 7511   4.642   1.367   1.741 -0.9227  0.1655  1.6091
 2307SOL     OW 7512   2.040   4.996   2.299  0.0776 -0.8039  0.0812
 2307SOL    HW1 7513   1.949   5.022   2.308  0.1872 -0.4201  0.0626
 2307SOL    HW2 7514   2.082   5.068   2.252  0.8074 -0.1330  1.7179
 2308SOL     OW 7515   4.622   4.169   2.241  0.2918  0.0931  0.6402
 2308SOL    HW1 7516   4.568   4.122   2.177 -0.8703  0.1542  1.5406
 2308SOL    HW2 7517   4.709   4.171   2.202 -0.7102  1.6492 -1.7502
 2309SOL     OW 7518   4.551   0.084   0.574 -0.1308  0.2838 -0.5744
 2309SOL    HW1 7519   4.524   0.161   0.523  1.6618  0.0118 -2.0751
 2309SOL    HW2 7520   4.490   0.016   0.548 -0.8828  0.8451 -0.2994
 2310SOL     OW 7521   5.545   0.019   1.476  0.4064 -0.4540 -0.0479
 2310SOL    HW1 7522   5.485   0.093   1.466  0.1923 -0.5569  0.4330
 2310SOL    HW2 7523   5.491  -0.058   1.460  0.1319 -0.6078  1.4319
 2311SOL     OW 7524   6.009   1.720   0.814 -0.1832 -0.5002 -0.0579
 2311SOL    HW1 7525   5.932   1.749   0.863  1.2775  1.8177  1.0756
 2311SOL    HW2 7526   6.083   1.766   0.856  1.6669 -1.6802 -1.8293
 2312SOL     OW 7527   4.171   1.040   2.132  0.2821  0.0013  0.6409
 2312SOL    HW1 7528   4.081   1.058   2.104  0.0966 -1.2902  0.3424
 2312SOL    HW2 7529   4.219   1.023   2.050  1.0697  1.6714  0.7009
 2313SOL     OW 7530   7.197   2.260   2.817  0.3685  0.6163  0.1135
 2313SOL    HW1 7531   7.282   2.303   2.829  1.1298 -1.1156  1.3212
 2313SOL    HW2 7532   7.146   2.284   2.894  0.6544 -0.2584  0.5944
 2314SOL     OW 7533   3.413   0.315  -0.018 -0.3680 -0.2186 -0.3653
 2314SOL    HW1 7534   3.375   0.395   0.018  2.2450  0.6061  0.8001
 2314SOL    HW2 7535   3.497   0.342  -0.055 -0.0267 -2.2044 -1.2050
 2315SOL     OW 7536   6.434   1.932   0.727  0.4785 -0.2429  0.2052
 2315SOL    HW1 7537   6.451   1.927   0.821 -0.1481 -1.8804  0.2733
 2315SOL    HW2 7538   6.422   1.841   0.700  0.6150  0.1995 -1.4623
 2316SOL     OW 7539   4.846   0.444   0.390 -0.8597 -0.1231 -0.1175
 2316SOL    HW1 7540   4.818   0.523   0.343 -0.3722 -0.0936 -0.3586
 2316SOL    HW2 7541   4.839   0.468   0.483 -0.3642  0.3252 -0.1943
 2317SOL     OW 7542   3.390   0.329   1.642  0.2889 -0.4647  0.0330
 2317SOL    HW1 7543   3.436   0.247   1.661  1.7378  0.5950  1.3941
 2317SOL    HW2 7544   3.355   0.356   1.726  1.2254  1.0945 -0.0398
 2318SOL     OW 7545   6.652   5.389   1.033 -0.2722  0.0753 -0.3768
 2318SOL    HW1 7546   6.581   5.451   1.046  0.3022  0.9932 -1.4512
 2318SOL    HW2 7547   6.648   5.331   1.110 -2.2401  0.0055 -0.4866
 2319SOL     OW 7548   5.152   1.267  -0.022  0.0825  0.3517 -0.0651
 2319SOL    HW1 7549   5.208   1.222  -0.085  0.1044  0.1588  0.0930
 2319SOL    HW2 7550   5.112   1.338  -0.072 -0.1033  0.0374 -0.3646
 2320SOL     OW 7551   6.386   4.854   3.292  0.1543  0.6949 -0.2133
 2320SOL    HW1 7552   6.307   4.833   3.343  0.7418 -1.2200  0.0138
 2320SOL    HW2 7553   6.353   4.900   3.215 -1.1353  0.4224  0.1456
 2321SOL     OW 7554   4.984   2.358   0.247 -0.4784  0.2499 -0.3067
 2321SOL    HW1 7555   4.920   2.314   0.191  0.0426 -0.4711 -0.3588
 2321SOL    HW2 7556   4.963   2.451   0.240 -0.8721  0.1100 -1.1247
 2322SOL     OW 7557   4.606   1.543   2.399  0.1383 -0.0817  0.1431
 2322SOL    HW1 7558   4.657   1.505   2.327 -1.9213 -0.6775 -1.1070
 2322SOL    HW2 7559   4.552   1.471   2.431  1.4563 -0.0163  2.8311
 2323SOL     OW 7560   3.149   1.325   3.018  0.2991  0.4541 -0.0922
 2323SOL    HW1 7561   3.101   1.299   3.097 -0.1937 -0.9503 -0.8267
 2323SOL    HW2 7562   3.114   1.412   2.997 -1.5787 -0.2892 -0.2825
 2324SOL     OW 7563   5.960   1.825   2.438 -0.6622  0.4583  0.5659
 2324SOL    HW1 7564   5.879   1.784   2.466 -0.7493  0.0297 -0.2871
 2324SOL    HW2 7565   6.028   1.761   2.457 -0.5677  0.6646  0.9304
 2325SOL     OW 7566   3.510   1.068   1.424  0.4518 -0.4179  0.0813
 2325SOL    HW1 7567   3.561   1.140   1.461  2.2178 -0.2510 -2.3613
 2325SOL    HW2 7568   3.419   1.098   1.427  1.0149  1.3771  0.2786
 2326SOL     OW 7569   1.800   0.667   1.042  0.5203  0.1935  0.3560
 2326SOL    HW1 7570   1.778   0.598   1.104 -2.7215  1.9587  1.4069
 2326SOL    HW2 7571   1.865   0.721   1.089 -1.1694  0.9556  1.9306
 2327SOL     OW 7572   3.606   1.307   2.991 -0.6994  0.7827 -0.2482
 2327SOL    HW1 7573   3.652   1.248   2.931 -0.0491 -0.4598  1.4250
 2327SOL    HW2 7574   3.639   1.394   2.968  1.2660  0.0877 -0.1920
 2328SOL     OW 7575   5.635   0.100   0.250  0.6219 -0.1466 -0.1048
 2328SOL    HW1 7576   5.592   0.174   0.291  0.0884 -1.3499  1.6337
 2328SOL    HW2 7577   5.716   0.088   0.301  1.3016 -0.0464 -1.1240
 2329SOL     OW 7578   2.922   1.951   1.652 -0.4284  0.1565  0.3246
 2329SOL    HW1 7579   3.001   1.926   1.604 -0.3473 -0.1028  0.5898
 2329SOL    HW2 7580   2.947   1.943   1.744 -0.5533  0.7468  0.4133
 2330SOL     OW 7581   5.632   1.891   1.532 -0.1616  0.6899  0.0783
 2330SOL    HW1 7582   5.678   1.837   1.596 -2.2259  0.2686  1.3315
 2330SOL    HW2 7583   5.700   1.946   1.493  1.7795 -1.6800 -0.1457
 2331SOL     OW 7584   5.644   4.191   1.054 -0.0173  0.5544  0.5620
 2331SOL    HW1 7585   5.569   4.133   1.046  0.2262 -0.0817  2.4670
 2331SOL    HW2 7586   5.649   4.235   0.969 -0.1058 -2.3041 -1.0558
 2332SOL     OW 7587   3.683   4.842   1.279 -0.0820  0.2752  0.2262
 2332SOL    HW1 7588   3.627   4.905   1.234  1.7194  1.4404 -0.4991
 2332SOL    HW2 7589   3.654   4.845   1.371 -1.1131  0.8968 -0.1034
 2333SOL     OW 7590   3.836   4.510   0.883  0.5010 -0.0397 -0.2410
 2333SOL    HW1 7591   3.803   4.503   0.793 -0.1893 -0.1864  0.0190
 2333SOL    HW2 7592   3.930   4.523   0.872  0.2418  1.4304 -1.0328
 2334SOL     OW 7593   6.488   0.937   1.156  0.2631  0.0455  0.0643
 2334SOL    HW1 7594   6.489   0.990   1.235  1.0163  2.2253 -1.3206
 2334SOL    HW2 7595   6.437   0.988   1.093  1.1183 -0.7738 -1.3697
 2335SOL     OW 7596   4.337   4.949   1.434 -0.2859 -0.0113  0.6490
 2335SOL    HW1 7597   4.328   4.946   1.530 -4.0741 -1.6379  0.4544
 2335SOL    HW2 7598   4.309   5.037   1.410  0.0483  0.1919  0.9869
 2336SOL     OW 7599   4.043   0.880   2.561 -0.1413  0.2233 -0.2119
 2336SOL    HW1 7600   4.097   0.886   2.482 -0.5925  1.4947 -0.4511
 2336SOL    HW2 7601   3.988   0.803   2.546 -2.3059  2.0504 -2.5552
 2337SOL     OW 7602   4.435   5.325   1.105  0.2084 -0.0302 -0.8042
 2337SOL    HW1 7603   4.479   5.406   1.079 -0.0266  0.3320 -0.0708
 2337SOL    HW2 7604   4.499   5.256   1.083 -0.1275  0.2118 -2.6902
 2338SOL     OW 7605   5.833   1.773   1.704  0.0907  0.7298  0.0517
 2338SOL    HW1 7606   5.899   1.704   1.698  0.6427  1.2546  0.0634
 2338SOL    HW2 7607   5.879   1.853   1.680 -0.4798  1.1385  0.2920
 2339SOL     OW 7608   2.854   4.989   1.306 -0.3669 -0.0050 -0.3228
 2339SOL    HW1 7609   2.792   5.060   1.323 -0.3758  0.0574 -0.6098
 2339SOL    HW2 7610   2.932   5.033   1.274 -0.4597 -0.1439 -0.7391
 2340SOL     OW 7611   4.947   3.393   2.781  0.2990 -0.1789 -1.0834
 2340SOL    HW1 7612   4.989   3.345   2.709  0.9950 -1.5121  0.1662
 2340SOL    HW2 7613   5.020   3.432   2.830 -0.1379  0.2924 -0.7981
 2341SOL     OW 7614   6.647   1.998   0.127 -0.1207  0.1133 -0.0623
 2341SOL    HW1 7615   6.633   1.933   0.059  1.2101  0.2852 -0.5363
 2341SOL    HW2 7616   6.729   1.970   0.170 -1.4506 -0.5927  2.1825
 2342SOL     OW 7617   5.165   1.747   1.729 -0.3873 -0.2368 -0.5369
 2342SOL    HW1 7618   5.226   1.711   1.665  0.2996  1.0199 -0.6158
 2342SOL    HW2 7619   5.216   1.751   1.811 -0.5152  0.3447 -0.4806
 2343SOL     OW 7620   4.781   2.142   0.191  0.4494 -0.1650 -0.7638
 2343SOL    HW1 7621   4.723   2.209   0.154  0.3594 -0.2196 -0.7207
 2343SOL    HW2 7622   4.737   2.113   0.271  1.0114  0.5124 -0.1816
 2344SOL     OW 7623   3.334   1.007   2.983  0.6178 -0.3496  0.1388
 2344SOL    HW1 7624   3.239   0.998   2.971  0.3650 -0.8326  2.1601
 2344SOL    HW2 7625   3.359   1.076   2.921 -1.1130  0.0924 -0.1364
 2345SOL     OW 7626   4.651   1.219   0.154  0.1630  0.0766  0.4361
 2345SOL    HW1 7627   4.672   1.304   0.115 -0.7103  0.0659 -0.0708
 2345SOL    HW2 7628   4.668   1.231   0.247  1.3557  0.3953  0.1976
 2346SOL     OW 7629   5.858   4.744   0.505 -0.4566 -0.5308  0.0185
 2346SOL    HW1 7630   5.853   4.783   0.592 -1.5259 -1.0679  0.2213
 2346SOL    HW2 7631   5.951   4.735   0.488 -0.2309 -0.4646  1.1377
 2347SOL     OW 7632   7.008   2.946   0.382  0.1134 -0.9026 -0.7105
 2347SOL    HW1 7633   6.948   2.990   0.443 -0.2684  1.2288 -2.5230
 2347SOL    HW2 7634   6.963   2.864   0.360  0.4601 -1.9673  2.1161
 2348SOL     OW 7635   2.410   4.179   2.369  0.6484  0.3060 -0.2562
 2348SOL    HW1 7636   2.446   4.251   2.318  1.1388  0.2566  0.0129
 2348SOL    HW2 7637   2.444   4.193   2.457 -1.0223  0.9787  0.3219
 2349SOL     OW 7638   2.228   0.452   0.938  0.0173  0.0214  0.0070
 2349SOL    HW1 7639   2.210   0.432   0.846  0.9290  1.5961 -0.5417
 2349SOL    HW2 7640   2.169   0.524   0.959 -2.2090 -2.0604  1.5526
 2350SOL     OW 7641   5.522   0.646   2.388 -0.5249 -0.0595 -0.3793
 2350SOL    HW1 7642   5.444   0.631   2.335 -1.6819 -0.1789  1.2813
 2350SOL    HW2 7643   5.495   0.622   2.477  0.8758  1.5905  0.5362
 2351SOL     OW 7644   5.736   0.045   2.098  0.0185 -0.4336 -0.1502
 2351SOL    HW1 7645   5.769  -0.018   2.035  0.8160 -0.1947  0.0204
 2351SOL    HW2 7646   5.802   0.113   2.102 -0.6282  0.2050 -0.0103
 2352SOL     OW 7647   3.241   1.070   1.463 -0.3832  0.4527  0.6903
 2352SOL    HW1 7648   3.178   1.086   1.533 -0.3025 -0.8221  1.0746
 2352SOL    HW2 7649   3.239   0.975   1.449 -1.2919  0.7700 -1.8960
 2353SOL     OW 7650   4.731   2.743   0.848 -0.1394 -0.2817  0.2160
 2353SOL    HW1 7651   4.826   2.748   0.856 -0.0363  1.8356 -1.5457
 2353SOL    HW2 7652   4.715   2.657   0.809  0.8824 -1.3102  1.9418
 2354SOL     OW 7653   5.100   5.263   2.436 -0.5936  0.2093 -0.7913
 2354SOL    HW1 7654   5.081   5.224   2.521  0.3735 -0.6100 -0.9335
 2354SOL    HW2 7655   5.115   5.188   2.378  1.4133  0.7628 -1.0448
 2355SOL     OW 7656   2.955   0.417   1.769  0.1628  0.4951 -0.0011
 2355SOL    HW1 7657   3.002   0.412   1.853  1.4007  0.5723 -0.6684
 2355SOL    HW2 7658   3.023   0.410   1.703 -0.6990  1.3949 -1.0196
 2356SOL     OW 7659   4.342   1.125   3.301  0.2145 -0.6920 -0.4432
 2356SOL    HW1 7660   4.364   1.124   3.395  0.3458 -0.8569 -0.4743
 2356SOL    HW2 7661   4.302   1.211   3.287 -0.0259 -0.7578 -0.1859
 2357SOL     OW 7662   3.770   1.183   0.257 -0.2173 -0.7453 -0.1185
 2357SOL    HW1 7663   3.801   1.251   0.316 -2.2856  0.3078 -0.1312
 2357SOL    HW2 7664   3.752   1.229   0.175  1.0810 -1.8846 -1.0960
 2358SOL     OW 7665   3.681   1.100   1.750  0.4722 -0.8807 -0.4218
 2358SOL    HW1 7666   3.706   1.031   1.811  0.3008  0.1402  0.8561
 2358SOL    HW2 7667   3.592   1.077   1.723  0.1412 -0.7961  0.5573
 2359SOL     OW 7668   6.543   1.842   3.433 -0.2552  0.3706  0.1074
 2359SOL    HW1 7669   6.489   1.763   3.442 -1.7770  1.3425 -0.0901
 2359SOL    HW2 7670   6.557   1.852   3.339 -0.4000  0.5350  0.1013
 2360SOL     OW 7671   5.033   0.378   1.759  0.3063  0.2317  0.4567
 2360SOL    HW1 7672   5.124   0.352   1.745  1.1272  0.8412  3.8278
 2360SOL    HW2 7673   5.039   0.467   1.795 -1.6470  0.4238  0.3850
 2361SOL     OW 7674   3.312   1.458   1.636  0.0667 -0.1219 -0.1317
 2361SOL    HW1 7675   3.221   1.478   1.617 -0.1991 -0.6668  0.5082
 2361SOL    HW2 7676   3.362   1.526   1.590 -0.5151 -1.1809 -2.4516
 2362SOL     OW 7677   2.223   1.784   1.390 -0.1346  0.0513 -0.5761
 2362SOL    HW1 7678   2.260   1.749   1.471 -3.2373 -1.4498  0.3577
 2362SOL    HW2 7679   2.215   1.878   1.405  1.5298  0.1588 -0.1552
 2363SOL     OW 7680   4.968   1.279   2.986  0.0336 -0.4019 -0.6953
 2363SOL    HW1 7681   5.026   1.229   2.929 -0.5804 -0.1449 -1.5718
 2363SOL    HW2 7682   4.967   1.230   3.069  0.8207 -0.8595 -0.9459
 2364SOL     OW 7683   4.106   5.107   2.335 -0.2054  0.3400  0.5134
 2364SOL    HW1 7684   4.174   5.108   2.403 -0.7640 -1.7945  1.1829
 2364SOL    HW2 7685   4.080   5.199   2.326  2.3287  1.1512  0.6412
 2365SOL     OW 7686   4.085   1.759   1.763 -0.9756  0.1702  0.3805
 2365SOL    HW1 7687   4.149   1.691   1.743 -1.1512 -0.0262  0.4951
 2365SOL    HW2 7688   4.001   1.714   1.765 -0.9397  0.1224  1.8398
 2366SOL     OW 7689   4.031   1.122   1.490 -0.2115 -0.0851 -0.0843
 2366SOL    HW1 7690   4.077   1.185   1.546 -1.9190 -0.8484  2.3163
 2366SOL    HW2 7691   3.957   1.172   1.455  0.3225  0.1327 -0.9161
 2367SOL     OW 7692   3.071   1.872   1.929  0.4725 -0.1456  0.0205
 2367SOL    HW1 7693   3.123   1.811   1.981  0.0810 -0.0646  0.5158
 2367SOL    HW2 7694   3.135   1.921   1.878  0.8025 -0.8417 -0.2425
 2368SOL     OW 7695   4.453   3.948   1.689  0.1342 -0.4835 -0.1923
 2368SOL    HW1 7696   4.373   3.946   1.637  1.3959 -2.3670 -2.2287
 2368SOL    HW2 7697   4.522   3.970   1.627  1.1668  1.9392  1.6780
 2369SOL     OW 7698   6.233   4.699   2.481  0.2572 -0.6096 -0.3449
 2369SOL    HW1 7699   6.198   4.713   2.569 -0.9864 -0.4070 -0.8575
 2369SOL    HW2 7700   6.284   4.618   2.489 -0.6014 -1.1037  0.3476
 2370SOL     OW 7701   5.796   2.003   3.500  0.4268 -0.4352 -0.4493
 2370SOL    HW1 7702   5.833   1.916   3.518 -1.2339 -1.0876  0.0544
 2370SOL    HW2 7703   5.732   1.987   3.430 -1.7017 -0.1469  1.3168
 2371SOL     OW 7704   4.282   2.091   2.976  0.2125 -0.1355 -0.0051
 2371SOL    HW1 7705   4.244   2.080   2.889 -1.7438 -1.7101  0.9734
 2371SOL    HW2 7706   4.217   2.141   3.025  0.7323 -0.2992  0.8851
 2372SOL     OW 7707   3.679   1.595   0.234 -0.4230  0.1182 -0.3674
 2372SOL    HW1 7708   3.700   1.541   0.310 -1.0363 -2.2785 -1.7829
 2372SOL    HW2 7709   3.593   1.563   0.206 -0.3175  1.1242 -1.9180
 2373SOL     OW 7710   4.163   1.707   2.064  0.6607 -0.0092  0.0235
 2373SOL    HW1 7711   4.206   1.671   1.986  0.0973 -2.3349  0.6941
 2373SOL    HW2 7712   4.156   1.632   2.123 -0.8220  1.2135  1.4759
 2374SOL     OW 7713   5.526   2.570   0.601 -0.3985  0.1161  0.0357
 2374SOL    HW1 7714   5.490   2.482   0.603  1.8868 -0.9207 -0.2600
 2374SOL    HW2 7715   5.551   2.583   0.509 -0.7960  1.1012  0.0637
 2375SOL     OW 7716   5.751   4.302   2.539  0.6809 -0.0519  0.7013
 2375SOL    HW1 7717   5.742   4.209   2.516  1.3978 -0.4582  1.9591
 2375SOL    HW2 7718   5.844   4.321   2.524  0.6852  0.2650  1.1174
 2376SOL     OW 7719   2.360   5.189   1.433  0.8188  0.0492 -0.0770
 2376SOL    HW1 7720   2.390   5.160   1.347 -0.6227  0.3882 -0.7236
 2376SOL    HW2 7721   2.387   5.119   1.493  0.8194 -0.7476 -0.9945
 2377SOL     OW 7722   4.451   1.365   0.682  1.1907  0.3215 -0.3204
 2377SOL    HW1 7723   4.470   1.453   0.713  1.6447  1.2635 -2.9619
 2377SOL    HW2 7724   4.359   1.351   0.704  0.9052  1.7805 -0.4707
 2378SOL     OW 7725   4.402   4.661   1.596 -0.0100 -0.2888 -0.5364
 2378SOL    HW1 7726   4.319   4.623   1.626 -0.2933  0.5944 -0.1717
 2378SOL    HW2 7727   4.435   4.708   1.672  1.7341 -2.0958 -0.1032
 2379SOL     OW 7728   4.344   0.730   2.119 -0.5112  0.3877  0.3054
 2379SOL    HW1 7729   4.422   0.713   2.173 -0.9713  0.3086  0.9623
 2379SOL    HW2 7730   4.375   0.788   2.050  0.0325  0.7691  0.8514
 2380SOL     OW 7731   5.948   2.336   2.497  0.5350 -0.0333  0.4229
 2380SOL    HW1 7732   5.986   2.388   2.568  1.8586  0.6732 -0.7377
 2380SOL    HW2 7733   5.967   2.245   2.520 -0.2250  0.0971  1.6050
 2381SOL     OW 7734   2.020   0.757   3.213 -0.0642 -0.3768  0.2093
 2381SOL    HW1 7735   2.023   0.676   3.265 -0.5110 -0.1994  0.5124
 2381SOL    HW2 7736   1.934   0.794   3.231 -0.8114 -1.0079 -1.7353
 2382SOL     OW 7737   4.651   5.208   1.015 -0.1163  0.0883 -0.1647
 2382SOL    HW1 7738   4.721   5.146   0.997 -1.7195 -2.3724  1.4513
 2382SOL    HW2 7739   4.601   5.212   0.934  0.4744 -0.0437 -0.5430
 2383SOL     OW 7740   3.853   4.140   0.602  0.5660 -0.6960 -0.0891
 2383SOL    HW1 7741   3.873   4.055   0.562 -2.4485 -1.9801  0.8602
 2383SOL    HW2 7742   3.763   4.132   0.632  0.2403  2.8110  0.2781
 2384SOL     OW 7743   2.882   1.617   0.607 -0.2087 -1.0575 -0.2755
 2384SOL    HW1 7744   2.895   1.675   0.682  1.6793 -0.4799 -1.0151
 2384SOL    HW2 7745   2.926   1.660   0.534 -0.4027 -2.5120 -1.2935
 2385SOL     OW 7746   7.292   2.197   0.066 -0.2216  0.1464 -0.5680
 2385SOL    HW1 7747   7.358   2.241   0.014  0.2592  0.1831  0.0710
 2385SOL    HW2 7748   7.341   2.144   0.128 -0.7903 -0.6470 -0.7790
 2386SOL     OW 7749   2.496   1.498   1.797  0.3420  0.0414 -0.6071
 2386SOL    HW1 7750   2.543   1.445   1.862  0.0674  0.1613 -0.3074
 2386SOL    HW2 7751   2.409   1.510   1.834  0.0185 -0.3234 -1.2492
 2387SOL     OW 7752   4.106   0.711   0.819  0.1225  0.3368 -0.2866
 2387SOL    HW1 7753   4.020   0.752   0.823 -0.5070 -0.8075 -1.4864
 2387SOL    HW2 7754   4.088   0.617   0.822  1.4160  0.0825  0.5951
 2388SOL     OW 7755   6.001   0.839   1.252 -0.1458  0.9624  0.2976
 2388SOL    HW1 7756   5.955   0.891   1.186 -0.8613 -0.2422 -0.1827
 2388SOL    HW2 7757   6.073   0.798   1.205  0.0960  1.0856  0.5542
 2389SOL     OW 7758   4.373   0.476   0.852 -0.5305 -0.1387  0.2197
 2389SOL    HW1 7759   4.339   0.518   0.773 -1.2475  2.2964  1.7258
 2389SOL    HW2 7760   4.422   0.400   0.820 -2.0427 -0.0893 -2.4351
 2390SOL     OW 7761   4.615   5.054   1.492 -0.1417 -0.3326  0.0837
 2390SOL    HW1 7762   4.617   5.148   1.473  1.5262 -0.5892 -1.2368
 2390SOL    HW2 7763   4.530   5.025   1.459  0.1807  0.3587 -1.4149
 2391SOL     OW 7764   2.355   1.562   3.386  0.5088  0.0090 -0.0118
 2391SOL    HW1 7765   2.389   1.505   3.455  0.5475 -1.2515 -1.0204
 2391SOL    HW2 7766   2.356   1.650   3.424  1.9238 -0.4379  1.0658
 2392SOL     OW 7767   5.561   4.769   1.777  0.5230 -0.0028  0.1645
 2392SOL    HW1 7768   5.620   4.730   1.712 -1.3631 -2.1462 -0.4203
 2392SOL    HW2 7769   5.590   4.733   1.861  1.1159  0.3627  0.1192
 2393SOL     OW 7770   3.906   1.427   2.209 -0.4076 -0.0828  0.1550
 2393SOL    HW1 7771   3.853   1.348   2.197 -0.7919  0.0104  1.1511
 2393SOL    HW2 7772   3.961   1.407   2.285 -0.4532  0.5768  0.3635
 2394SOL     OW 7773   4.921   1.737   3.502 -0.7065 -0.3029 -0.1035
 2394SOL    HW1 7774   4.871   1.762   3.580 -1.3591 -0.7364 -0.3708
 2394SOL    HW2 7775   4.901   1.805   3.437  0.0527  0.2075  0.1854
 2395SOL     OW 7776   5.244   0.597   2.993 -0.0920  0.6423  0.4441
 2395SOL    HW1 7777   5.284   0.514   2.968  0.0405  0.0635  2.3909
 2395SOL    HW2 7778   5.255   0.601   3.088 -1.7106  2.0306  0.6211
 2396SOL     OW 7779   5.271   1.350   1.673  0.4191 -0.1179 -0.0439
 2396SOL    HW1 7780   5.192   1.314   1.634  0.7205 -0.2825 -0.5172
 2396SOL    HW2 7781   5.250   1.361   1.766  0.0850 -0.8431 -0.0300
 2397SOL     OW 7782   3.474   1.481   2.204  0.1897  0.2620 -0.1204
 2397SOL    HW1 7783   3.531   1.450   2.134 -0.0241 -0.0202 -0.1724
 2397SOL    HW2 7784   3.471   1.576   2.192 -0.1676  0.1772 -0.7438
 2398SOL     OW 7785   7.073   1.637   0.627 -0.1062  0.1954  0.5800
 2398SOL    HW1 7786   7.161   1.598   0.633 -0.1620  0.0353  0.3644
 2398SOL    HW2 7787   7.020   1.583   0.686  0.3456  1.4643  2.2237
 2399SOL     OW 7788   4.396   0.719   2.470  0.2088  0.3776 -0.0381
 2399SOL    HW1 7789   4.357   0.673   2.544  0.6262 -1.1678 -0.7426
 2399SOL    HW2 7790   4.337   0.793   2.453  0.2114  0.8797  1.9268
 2400SOL     OW 7791   2.624   1.698   2.411 -0.4641 -0.2670  0.1029
 2400SOL    HW1 7792   2.686   1.627   2.395  1.7329  1.2933  1.2042
 2400SOL    HW2 7793   2.652   1.768   2.352 -3.2950 -0.5881 -1.8093
 2401SOL     OW 7794   5.413   5.176   1.436 -0.5385 -0.2694  0.1821
 2401SOL    HW1 7795   5.437   5.096   1.391  0.6683  0.1591  0.0445
 2401SOL    HW2 7796   5.427   5.157   1.529  0.4227 -0.0012  0.0978
 2402SOL     OW 7797   4.841   0.601   1.013 -0.0522  0.2006 -0.0611
 2402SOL    HW1 7798   4.929   0.637   1.009 -0.5817  1.4729 -2.0390
 2402SOL    HW2 7799   4.785   0.676   1.033 -0.7268 -0.5430  0.9525
 2403SOL     OW 7800   3.805   3.635   3.196 -0.7104 -0.2527 -0.0885
 2403SOL    HW1 7801   3.828   3.617   3.105 -1.0548  1.8019 -0.6562
 2403SOL    HW2 7802   3.721   3.590   3.209 -0.0572 -1.5856 -0.3720
 2404SOL     OW 7803   4.325   0.671   1.778  0.0889  0.9554 -0.4257
 2404SOL    HW1 7804   4.281   0.709   1.855 -0.4059  1.7482 -1.0822
 2404SOL    HW2 7805   4.411   0.644   1.811 -0.6651 -0.0935  0.7509
 2405SOL     OW 7806   4.201   5.175   2.964  0.0660  0.6460 -0.4897
 2405SOL    HW1 7807   4.194   5.261   3.005  1.2825  0.3007  0.5063
 2405SOL    HW2 7808   4.110   5.146   2.954 -0.3180  1.4084  0.5747
 2406SOL     OW 7809   5.381   1.504   0.141 -0.1055  0.2495  0.0749
 2406SOL    HW1 7810   5.336   1.444   0.081 -1.0664  1.2733 -0.2462
 2406SOL    HW2 7811   5.387   1.587   0.093  1.8419  0.2601  0.2372
 2407SOL     OW 7812   0.036   1.386   3.545 -0.0763 -0.3027  0.6884
 2407SOL    HW1 7813   0.037   1.301   3.589 -0.2779 -0.5263  0.2673
 2407SOL    HW2 7814   0.120   1.426   3.568  1.0685 -1.5925 -0.9668
 2408SOL     OW 7815   5.364   1.586   1.549 -0.1500 -0.3200  0.2758
 2408SOL    HW1 7816   5.327   1.506   1.587 -1.6458 -0.0082 -0.4720
 2408SOL    HW2 7817   5.451   1.593   1.589 -0.4568 -1.6750  1.2508
 2409SOL     OW 7818   3.347   1.411   0.816  0.2445  0.3341  1.0857
 2409SOL    HW1 7819   3.352   1.493   0.767 -0.2796  0.2359  0.8646
 2409SOL    HW2 7820   3.255   1.386   0.812  0.8207 -1.7700 -1.3167
 2410SOL     OW 7821   5.413   2.058   1.548 -0.0828 -0.4330  0.2742
 2410SOL    HW1 7822   5.349   2.029   1.482 -1.0474 -0.4437  1.1816
 2410SOL    HW2 7823   5.489   2.001   1.534  0.1171  0.1808 -1.4222
 2411SOL     OW 7824   4.991   0.425   1.388 -0.4476  0.1312 -0.3171
 2411SOL    HW1 7825   5.030   0.511   1.403 -0.3180  0.2394 -1.2189
 2411SOL    HW2 7826   4.957   0.398   1.473  2.0882 -0.2403  0.6476
 2412SOL     OW 7827   2.962   0.485   1.299 -0.3265 -0.2018  0.0754
 2412SOL    HW1 7828   2.921   0.557   1.251 -1.6250 -0.6782  0.4065
 2412SOL    HW2 7829   2.988   0.423   1.231  3.6648  1.8235 -0.5271
 2413SOL     OW 7830   3.584   0.610   1.984  0.1443  0.2126  0.4283
 2413SOL    HW1 7831   3.643   0.608   1.908 -0.8776 -2.0777 -0.4079
 2413SOL    HW2 7832   3.501   0.643   1.949  0.3483  1.5081  1.1376
 2414SOL     OW 7833   6.588   2.393   3.341  0.0969  0.1536 -0.2420
 2414SOL    HW1 7834   6.559   2.310   3.302 -0.3890 -0.8635  2.0994
 2414SOL    HW2 7835   6.670   2.372   3.384  0.5632  1.2185 -0.5752
 2415SOL     OW 7836   4.991   3.964   1.482  0.2566  0.2839  0.5076
 2415SOL    HW1 7837   4.967   4.038   1.537 -0.2087 -0.4040  1.2597
 2415SOL    HW2 7838   5.063   3.922   1.528  0.3500  0.1272  0.2209
 2416SOL     OW 7839   4.197   4.980   0.453  0.5347  0.0891  0.2966
 2416SOL    HW1 7840   4.171   4.904   0.505  1.7169 -0.7762 -0.3130
 2416SOL    HW2 7841   4.223   4.943   0.369 -1.7568  1.4764 -1.1429
 2417SOL     OW 7842   1.911   0.318   0.675 -0.3994 -0.2918  0.1147
 2417SOL    HW1 7843   1.887   0.404   0.642  1.0366 -0.0044 -0.2542
 2417SOL    HW2 7844   1.846   0.299   0.743 -1.0330  0.8471 -0.1534
 2418SOL     OW 7845   5.082   1.262   1.477 -0.1225  0.4106  0.3102
 2418SOL    HW1 7846   5.082   1.177   1.433 -2.1373  0.6854 -0.3036
 2418SOL    HW2 7847   5.121   1.321   1.413 -1.7236  0.5339 -0.6027
 2419SOL     OW 7848   4.103   1.858   0.710  0.1544  0.1075  0.1946
 2419SOL    HW1 7849   4.110   1.940   0.663 -0.7244 -0.0613 -0.2447
 2419SOL    HW2 7850   4.093   1.791   0.642 -1.7898 -0.0662  0.5810
 2420SOL     OW 7851   3.899   1.665   2.354  0.4880  0.1822  0.2164
 2420SOL    HW1 7852   3.904   1.596   2.288 -1.2008  0.6955 -0.5007
 2420SOL    HW2 7853   3.978   1.654   2.406  0.6602 -1.7613 -0.3884
 2421SOL     OW 7854   3.855   0.844   0.821 -1.0300  0.1166 -0.4503
 2421SOL    HW1 7855   3.803   0.903   0.767 -0.0616 -0.0302 -1.5789
 2421SOL    HW2 7856   3.884   0.898   0.895 -1.1203  0.7244 -0.8533
 2422SOL     OW 7857   5.010   1.424   0.539  0.4005  0.6199 -0.1633
 2422SOL    HW1 7858   5.016   1.419   0.634  0.5913 -2.1794 -0.2556
 2422SOL    HW2 7859   5.004   1.333   0.510 -1.1738  1.4443 -2.7533
 2423SOL     OW 7860   6.424   5.077   2.826 -0.3371  0.0350 -0.8747
 2423SOL    HW1 7861   6.459   5.080   2.737  0.9539 -0.8173 -0.4204
 2423SOL    HW2 7862   6.331   5.099   2.816  0.1286  1.6253 -2.2189
 2424SOL     OW 7863   3.752   0.341   2.660 -0.0087  0.3076 -0.1684
 2424SOL    HW1 7864   3.674   0.293   2.631  0.2456  0.4135 -1.0637
 2424SOL    HW2 7865   3.733   0.365   2.751 -0.6523 -0.4222 -0.1001
 2425SOL     OW 7866   3.526   0.298   1.336 -0.6621  0.3985  0.2069
 2425SOL    HW1 7867   3.558   0.387   1.328 -0.7014  0.4333  0.4191
 2425SOL    HW2 7868   3.574   0.262   1.411 -0.4533  0.1570 -0.0431
 2426SOL     OW 7869   3.913   1.982   0.870 -0.0871  0.2958 -0.1351
 2426SOL    HW1 7870   3.975   1.931   0.818 -0.1787  0.5127 -0.4563
 2426SOL    HW2 7871   3.959   2.063   0.889 -0.0568  0.2209  0.1196
 2427SOL     OW 7872   4.642   0.068   1.885  0.3190  0.2416  0.0710
 2427SOL    HW1 7873   4.590   0.058   1.965 -1.2390 -2.0668 -1.0945
 2427SOL    HW2 7874   4.653   0.163   1.875 -0.7668  0.6565  2.1674
 2428SOL     OW 7875   4.930   0.715   2.183  0.1352 -0.8550 -0.4655
 2428SOL    HW1 7876   4.971   0.630   2.164 -0.8687 -1.1299 -1.5506
 2428SOL    HW2 7877   4.843   0.692   2.216  0.2979 -0.2565  0.4034
 2429SOL     OW 7878   6.661   0.426   1.924 -0.1468 -0.1608 -0.2912
 2429SOL    HW1 7879   6.724   0.400   1.857  1.1751  0.9145  0.4798
 2429SOL    HW2 7880   6.599   0.353   1.928  0.2886 -0.6659 -1.9926
 2430SOL     OW 7881   4.314   5.192   1.300  0.5876 -0.1661 -0.1364
 2430SOL    HW1 7882   4.323   5.258   1.369  1.2108 -0.0518 -0.3205
 2430SOL    HW2 7883   4.367   5.226   1.228  0.9392 -0.8761 -0.2240
 2431SOL     OW 7884   4.454   0.169   1.656 -0.0532  0.0873  0.1226
 2431SOL    HW1 7885   4.499   0.241   1.613  0.0504  0.4425  0.8172
 2431SOL    HW2 7886   4.389   0.211   1.713 -0.9627 -0.4022 -0.5273
 2432SOL     OW 7887   4.385   1.747   2.467  0.9202  0.5187  0.8416
 2432SOL    HW1 7888   4.429   1.816   2.516  2.0648  0.5857 -0.2462
 2432SOL    HW2 7889   4.415   1.666   2.508  1.5820  0.5894  0.5113
 2433SOL     OW 7890   5.654   0.424   1.622  0.0835 -0.6178  0.1947
 2433SOL    HW1 7891   5.739   0.383   1.643  0.1384 -0.2718  0.6698
 2433SOL    HW2 7892   5.651   0.425   1.526  0.3032 -1.2753  0.1769
 2434SOL     OW 7893   3.936   5.120   2.909 -0.3083 -0.2405  0.1216
 2434SOL    HW1 7894   3.915   5.210   2.935  2.1001  0.3906  0.1125
 2434SOL    HW2 7895   3.885   5.066   2.969 -1.5943  1.1205  0.3094
 2435SOL     OW 7896   3.891   1.296   1.838  0.3517  0.0175 -0.2895
 2435SOL    HW1 7897   3.850   1.243   1.769 -2.2010  0.7180  0.5888
 2435SOL    HW2 7898   3.920   1.232   1.903 -0.0523 -0.4727 -0.5815
 2436SOL     OW 7899   4.704   2.175   3.273 -0.0722  0.1298 -0.6643
 2436SOL    HW1 7900   4.649   2.189   3.195  0.9418 -0.5159 -1.5323
 2436SOL    HW2 7901   4.784   2.223   3.254  0.1701 -0.0033  0.0052
 2437SOL     OW 7902   4.098   3.717   3.370 -0.0763  0.0290  0.0574
 2437SOL    HW1 7903   4.018   3.756   3.334 -0.5321 -0.9009  0.0174
 2437SOL    HW2 7904   4.145   3.683   3.294  1.1564  1.9189 -0.0966
 2438SOL     OW 7905   3.103   0.204   0.449  0.0645 -0.2671 -0.0785
 2438SOL    HW1 7906   3.086   0.157   0.367  2.6191 -1.8213  0.1945
 2438SOL    HW2 7907   3.131   0.291   0.420 -2.5895  0.5031 -0.6472
 2439SOL     OW 7908   4.151   2.745   0.523  0.2867 -0.3347  0.2377
 2439SOL    HW1 7909   4.154   2.761   0.429  1.5789 -0.2495  0.2719
 2439SOL    HW2 7910   4.065   2.776   0.550  0.5020  1.1611 -0.6636
 2440SOL     OW 7911   3.170   1.812   1.602 -0.3929 -0.0814 -0.1161
 2440SOL    HW1 7912   3.235   1.821   1.671 -0.2654 -1.3782 -0.0389
 2440SOL    HW2 7913   3.212   1.850   1.525 -0.6345  1.6009  0.5506
 2441SOL     OW 7914   4.060   0.201   3.323  0.4660 -0.4980  0.3779
 2441SOL    HW1 7915   3.970   0.216   3.295 -0.0727  0.8208  2.5836
 2441SOL    HW2 7916   4.109   0.274   3.285 -0.0062  0.5157  1.6450
 2442SOL     OW 7917   4.698   1.728   0.824 -0.2826  0.0548 -0.1110
 2442SOL    HW1 7918   4.606   1.745   0.844 -0.1583  0.0256  0.5356
 2442SOL    HW2 7919   4.705   1.632   0.821 -0.1503  0.0369  0.5145
 2443SOL     OW 7920   6.034   3.209   1.812  0.3264 -0.2310 -0.2331
 2443SOL    HW1 7921   6.000   3.263   1.884  0.3905  0.0539 -0.4153
 2443SOL    HW2 7922   5.981   3.129   1.816 -0.5519  0.3149 -0.6729
 2444SOL     OW 7923   5.676   1.302   1.485  0.2766 -0.0319 -0.7283
 2444SOL    HW1 7924   5.604   1.269   1.539  1.3202 -1.5766 -0.1914
 2444SOL    HW2 7925   5.647   1.389   1.456 -1.2938 -0.1315  0.4032
 2445SOL     OW 7926   6.025   1.659   2.003 -0.6498  0.1852  0.0423
 2445SOL    HW1 7927   5.987   1.573   2.019  0.1154  0.0135  0.9770
 2445SOL    HW2 7928   5.950   1.718   2.002 -1.0960 -0.3687  0.2250
 2446SOL     OW 7929   6.539   5.032   3.087  0.0989 -0.5029  0.5752
 2446SOL    HW1 7930   6.526   5.062   2.997  1.3614 -0.8480  0.2677
 2446SOL    HW2 7931   6.463   4.977   3.104  0.0542 -0.7691 -0.4221
 2447SOL     OW 7932   2.665   0.519   0.482 -0.1758  0.0951 -0.3869
 2447SOL    HW1 7933   2.602   0.456   0.446  0.7384 -1.6261  0.8622
 2447SOL    HW2 7934   2.734   0.524   0.416  0.4782 -1.4172  0.1512
 2448SOL     OW 7935   3.876   5.166   0.836 -0.1312  0.0490  0.2310
 2448SOL    HW1 7936   3.826   5.245   0.817 -1.2934 -0.6521  0.3007
 2448SOL    HW2 7937   3.885   5.122   0.751 -2.3587 -1.3665  0.6480
 2449SOL     OW 7938   2.490   1.619   0.288  0.2368 -0.1446  0.1592
 2449SOL    HW1 7939   2.496   1.712   0.264 -2.7083  0.4931  1.5047
 2449SOL    HW2 7940   2.564   1.606   0.348  0.0248  1.6628  0.8887
 2450SOL     OW 7941   5.044   5.219   1.987  0.1613 -0.9539  0.1631
 2450SOL    HW1 7942   5.006   5.206   1.900 -0.8797 -0.2858  0.5106
 2450SOL    HW2 7943   4.969   5.217   2.047  0.5932  0.8410  0.8158
 2451SOL     OW 7944   5.694   2.453   0.862  0.2161 -0.0815  0.0696
 2451SOL    HW1 7945   5.690   2.544   0.892  0.7391 -0.0233 -0.0394
 2451SOL    HW2 7946   5.674   2.457   0.769 -2.1093 -0.3354  0.4961
 2452SOL     OW 7947   5.967   4.973   3.199 -0.3478  0.5591  0.0541
 2452SOL    HW1 7948   6.023   4.946   3.271  1.1313 -4.1132 -2.3882
 2452SOL    HW2 7949   6.024   5.025   3.142  0.1934 -0.3231 -0.2370
 2453SOL     OW 7950   5.859   1.787   3.169 -0.4405  0.6683  0.2857
 2453SOL    HW1 7951   5.768   1.811   3.185 -0.7541  0.3270 -0.9224
 2453SOL    HW2 7952   5.904   1.805   3.252 -1.5380  1.1483  0.7830
 2454SOL     OW 7953   6.509   0.301   2.735  0.3000 -0.5053  0.0277
 2454SOL    HW1 7954   6.602   0.280   2.723  0.9400  0.9237  1.9176
 2454SOL    HW2 7955   6.509   0.387   2.777 -1.9433  0.0966 -1.0464
 2455SOL     OW 7956   3.830   1.462   2.797  0.5244 -0.0716 -0.0187
 2455SOL    HW1 7957   3.803   1.534   2.741 -0.4662  0.5398  1.2124
 2455SOL    HW2 7958   3.901   1.498   2.851  1.5025 -0.6685 -0.8479
 2456SOL     OW 7959   6.487   1.207   0.250 -0.2098  0.3983 -0.3873
 2456SOL    HW1 7960   6.425   1.163   0.309 -0.4078 -0.3976 -1.1616
 2456SOL    HW2 7961   6.561   1.147   0.244  0.8803  1.5367  0.8683
 2457SOL     OW 7962   5.021   1.825   2.922 -0.4822 -0.0506  0.1226
 2457SOL    HW1 7963   5.000   1.856   2.834 -0.6523 -2.1995 -0.6630
 2457SOL    HW2 7964   5.112   1.798   2.918 -0.9543 -1.7455  0.0690
 2458SOL     OW 7965   3.795   0.489   0.892 -0.2050 -0.0903  0.3618
 2458SOL    HW1 7966   3.803   0.555   0.962 -0.3278 -1.2362  1.4873
 2458SOL    HW2 7967   3.701   0.472   0.886 -0.0229 -2.3469  2.2551
 2459SOL     OW 7968   5.573   2.932   1.710 -0.2363 -0.8384  0.1857
 2459SOL    HW1 7969   5.574   2.951   1.804 -0.7657  0.0924  0.0195
 2459SOL    HW2 7970   5.510   2.995   1.674 -0.0954 -1.2374 -0.7833
 2460SOL     OW 7971   5.204   0.625   1.622  0.7904  0.2934 -0.6432
 2460SOL    HW1 7972   5.194   0.645   1.529 -0.6353 -1.7296 -1.0103
 2460SOL    HW2 7973   5.282   0.569   1.626 -0.0939 -1.0117 -0.9259
 2461SOL     OW 7974   3.130   5.189   1.403  0.1247 -0.2816 -0.2231
 2461SOL    HW1 7975   3.184   5.182   1.324  0.9697 -0.7812  0.3787
 2461SOL    HW2 7976   3.065   5.256   1.381 -0.1812 -0.9869 -1.6272
 2462SOL     OW 7977   5.538   1.866   2.627 -0.3279 -0.2666 -0.2072
 2462SOL    HW1 7978   5.515   1.835   2.539 -2.9342 -1.0946  0.6520
 2462SOL    HW2 7979   5.467   1.925   2.651  0.1317 -0.3163  1.4555
 2463SOL     OW 7980   3.250   1.645   3.272  0.0497 -0.2868 -0.1555
 2463SOL    HW1 7981   3.171   1.590   3.273  0.2017 -0.5323 -1.0156
 2463SOL    HW2 7982   3.320   1.586   3.299  0.4569 -0.9515 -2.4336
 2464SOL     OW 7983   4.164   5.006   2.092  0.2521 -0.1744 -0.4393
 2464SOL    HW1 7984   4.207   5.086   2.063 -2.8074  1.2868 -1.3072
 2464SOL    HW2 7985   4.144   5.023   2.184  1.7365 -1.0204  0.0804
 2465SOL     OW 7986   6.051   2.623   2.432 -0.3232 -0.6590  0.2115
 2465SOL    HW1 7987   6.078   2.555   2.370  0.0812 -0.3593  0.0484
 2465SOL    HW2 7988   6.059   2.704   2.383  1.5128 -0.2514  1.1034
 2466SOL     OW 7989   4.248   2.753   0.782  0.1036 -0.2724  0.1340
 2466SOL    HW1 7990   4.218   2.742   0.692 -1.1546  1.2084  0.3144
 2466SOL    HW2 7991   4.341   2.775   0.774 -0.2973  1.2300 -0.9549
 2467SOL     OW 7992   5.110   1.853   2.191 -0.8519  0.2458  0.6203
 2467SOL    HW1 7993   5.016   1.850   2.170 -0.8103  0.8141  0.3296
 2467SOL    HW2 7994   5.117   1.807   2.275 -1.2491 -0.6279  0.1804
 2468SOL     OW 7995   5.338   4.273   0.854  0.6116 -0.0629  0.3140
 2468SOL    HW1 7996   5.414   4.215   0.846  2.5231  2.3625 -0.4246
 2468SOL    HW2 7997   5.362   4.333   0.924 -1.0976  0.1322  0.7529
 2469SOL     OW 7998   5.983   4.439   2.776  0.0821 -0.1630 -0.8012
 2469SOL    HW1 7999   6.024   4.374   2.833  2.1051  1.1776 -0.6186
 2469SOL    HW2 8000   6.016   4.419   2.689  0.2349  0.2553 -0.8395
 2470SOL     OW 8001   4.060   2.382   3.442  0.2367 -0.2293  0.6603
 2470SOL    HW1 8002   4.029   2.307   3.390  0.6818 -0.0747  0.1638
 2470SOL    HW2 8003   4.151   2.361   3.460  0.7823  0.8396 -0.6915
 2471SOL     OW 8004   3.815   5.070   0.119  0.1045 -0.2853  0.0530
 2471SOL    HW1 8005   3.812   4.990   0.171 -1.4765 -0.6192 -0.4860
 2471SOL    HW2 8006   3.908   5.091   0.113  0.5585 -2.0453  0.2503
 2472SOL     OW 8007   4.519   2.234   3.072  0.0674  0.0311  0.0082
 2472SOL    HW1 8008   4.544   2.283   2.993  0.1567  0.1979  0.1376
 2472SOL    HW2 8009   4.434   2.196   3.050  0.2212 -0.1538 -0.2674
 2473SOL     OW 8010   3.695   0.999   2.420  0.6713  0.3849  0.5046
 2473SOL    HW1 8011   3.612   1.048   2.416  0.3718 -0.0718  0.9191
 2473SOL    HW2 8012   3.672   0.912   2.387  0.8004  0.0225  1.3519
 2474SOL     OW 8013   1.834   4.770   2.363  0.1651 -0.0296  0.0787
 2474SOL    HW1 8014   1.803   4.848   2.408 -0.4849  0.0989 -0.5684
 2474SOL    HW2 8015   1.837   4.795   2.271  3.7178  0.4866  0.1626
 2475SOL     OW 8016   3.853   0.449   1.636 -0.5589 -0.2890  0.4475
 2475SOL    HW1 8017   3.849   0.531   1.587  1.4468 -0.2315  0.2896
 2475SOL    HW2 8018   3.851   0.475   1.728 -0.2108 -0.0740  0.3958
 2476SOL     OW 8019   3.206   1.678   2.064  0.9049 -0.2527 -0.2200
 2476SOL    HW1 8020   3.221   1.587   2.037  1.0865 -0.8456  1.7173
 2476SOL    HW2 8021   3.273   1.695   2.129 -0.8922  0.2528  1.6075
 2477SOL     OW 8022   4.825   5.041   0.910 -0.9043  0.0555  0.2249
 2477SOL    HW1 8023   4.912   5.011   0.938 -0.4182  0.1751 -1.1091
 2477SOL    HW2 8024   4.835   5.062   0.817 -2.2075  0.6804  0.2022
 2478SOL     OW 8025   4.083   1.589   0.507  0.1425  0.0009  0.0429
 2478SOL    HW1 8026   4.106   1.496   0.504  0.0854 -0.1390  2.3624
 2478SOL    HW2 8027   4.166   1.634   0.493  0.3774 -0.4051  0.1014
 2479SOL     OW 8028   4.920   1.904   1.690 -0.2935  0.2112 -0.0076
 2479SOL    HW1 8029   5.002   1.858   1.705 -1.6569 -1.5715  2.5803
 2479SOL    HW2 8030   4.946   1.986   1.647  2.8199 -0.1873  0.9081
 2480SOL     OW 8031   4.253   0.928   1.279  0.4452  0.4673 -0.0209
 2480SOL    HW1 8032   4.158   0.937   1.286  0.3360 -1.3411  1.5134
 2480SOL    HW2 8033   4.287   0.964   1.361  0.7756 -2.0456  1.0157
 2481SOL     OW 8034   4.093   0.294   2.945  0.0238  0.0942  0.1110
 2481SOL    HW1 8035   4.150   0.256   2.878 -0.3480 -1.2529  0.5276
 2481SOL    HW2 8036   4.049   0.366   2.900 -0.1904 -0.7543 -1.1170
 2482SOL     OW 8037   0.052   1.280   2.273  0.2874 -0.0744 -0.0814
 2482SOL    HW1 8038   0.131   1.228   2.285  0.2628  0.1075  1.0750
 2482SOL    HW2 8039   0.036   1.318   2.360 -0.8570  0.1851 -0.3920
 2483SOL     OW 8040   5.417   1.671   2.771  0.2732 -0.0341 -0.0648
 2483SOL    HW1 8041   5.451   1.718   2.695 -1.7646 -0.7599 -1.4864
 2483SOL    HW2 8042   5.469   1.704   2.844  0.9427  2.1856 -1.4461
 2484SOL     OW 8043   3.585   1.419   2.507 -0.3449 -0.2822 -0.1695
 2484SOL    HW1 8044   3.542   1.438   2.424 -1.9466  0.4219  0.7682
 2484SOL    HW2 8045   3.577   1.324   2.518 -1.4023 -0.1980 -0.1663
 2485SOL     OW 8046   4.369   1.980   2.026 -0.1705  0.5133  0.5494
 2485SOL    HW1 8047   4.328   1.986   2.112 -0.4458 -0.0607  0.4592
 2485SOL    HW2 8048   4.301   2.008   1.965 -1.5148 -3.1257  0.1060
 2486SOL     OW 8049   5.100   0.808   3.098 -0.6886 -0.0355  0.2277
 2486SOL    HW1 8050   5.158   0.754   3.044 -0.7658  0.9288 -0.8422
 2486SOL    HW2 8051   5.064   0.746   3.163  1.3819 -0.6879  0.8316
 2487SOL     OW 8052   6.194   1.357   1.832 -0.1786  0.2041  0.3743
 2487SOL    HW1 8053   6.219   1.450   1.825 -2.4022  0.7886 -0.5018
 2487SOL    HW2 8054   6.208   1.337   1.925  1.1467  1.1479  0.4138
 2488SOL     OW 8055   4.469   4.851   1.820  0.8632  0.1738 -0.1506
 2488SOL    HW1 8056   4.554   4.892   1.833 -0.2816  2.1895  1.7476
 2488SOL    HW2 8057   4.461   4.788   1.892  0.1496  1.1645  0.6697
 2489SOL     OW 8058   4.979   1.326   0.251 -0.0488 -0.0840  0.2491
 2489SOL    HW1 8059   5.006   1.418   0.242  1.1341  0.0126  3.4552
 2489SOL    HW2 8060   5.009   1.284   0.170 -0.2130  2.2244 -1.1064
 2490SOL     OW 8061   6.238   3.363   1.742  0.1874  0.3162  0.2202
 2490SOL    HW1 8062   6.173   3.296   1.764  0.4972 -0.2067 -0.4231
 2490SOL    HW2 8063   6.269   3.395   1.827 -1.0131  0.6845  0.5409
 2491SOL     OW 8064   4.338   0.954   1.914  0.2007 -0.4010  0.1029
 2491SOL    HW1 8065   4.428   0.944   1.883  0.1701 -1.5441  0.3524
 2491SOL    HW2 8066   4.309   1.038   1.876  1.5791  0.3169  0.5665
 2492SOL     OW 8067   2.921   1.373   0.398  0.3231 -0.1144  0.5143
 2492SOL    HW1 8068   2.953   1.353   0.486  0.1861  0.7333  0.7718
 2492SOL    HW2 8069   2.947   1.298   0.345  1.1668 -0.2423  1.0919
 2493SOL     OW 8070   4.725   0.947   3.128 -0.2452  0.3642 -0.2427
 2493SOL    HW1 8071   4.750   0.860   3.096 -1.4862 -0.1944  0.2216
 2493SOL    HW2 8072   4.807   0.986   3.158  0.0573 -1.6379  1.8461
 2494SOL     OW 8073   4.449   0.889   0.934 -0.0649  0.1901  0.3799
 2494SOL    HW1 8074   4.453   0.880   0.839 -0.5359 -0.5317  0.4247
 2494SOL    HW2 8075   4.398   0.814   0.964  0.5913  0.0783  1.2643
 2495SOL     OW 8076   4.914   4.163   1.663  0.0386  0.2712 -0.2680
 2495SOL    HW1 8077   4.824   4.143   1.688  0.4611 -0.1090  0.9838
 2495SOL    HW2 8078   4.931   4.249   1.702  0.0828  0.5466 -0.8795
 2496SOL     OW 8079   3.070   0.372   2.000 -0.1840 -1.0616 -0.3964
 2496SOL    HW1 8080   3.051   0.409   2.087 -0.6793  0.6062 -1.1756
 2496SOL    HW2 8081   3.165   0.364   1.998 -0.0352  0.3051 -0.2113
 2497SOL     OW 8082   3.518   1.320   1.541 -0.4628  0.3880  0.1564
 2497SOL    HW1 8083   3.583   1.389   1.526  0.7063 -0.8162 -0.5695
 2497SOL    HW2 8084   3.439   1.367   1.567  0.8237  1.9081  1.6420
 2498SOL     OW 8085   4.578   0.671   2.262 -0.6038 -0.5574  0.1284
 2498SOL    HW1 8086   4.628   0.597   2.297 -0.8039 -0.6707  0.1752
 2498SOL    HW2 8087   4.505   0.681   2.323 -0.6887 -0.4515  0.0096
 2499SOL     OW 8088   4.909   1.205   1.675 -0.3093  0.5591 -0.6514
 2499SOL    HW1 8089   4.958   1.243   1.603  1.2879 -0.0439  0.0682
 2499SOL    HW2 8090   4.869   1.280   1.720  0.7932  1.1649 -0.6613
 2500SOL     OW 8091   5.798   1.020   2.438 -0.5099 -0.7510  0.1468
 2500SOL    HW1 8092   5.779   0.927   2.437 -2.6944 -0.3504  0.1804
 2500SOL    HW2 8093   5.802   1.046   2.346  1.5807 -1.0849  0.0809
 2501SOL     OW 8094   3.974   0.849   1.601  0.3229  0.3281 -0.0337
 2501SOL    HW1 8095   3.955   0.861   1.694  0.1378 -2.7354  0.4277
 2501SOL    HW2 8096   4.005   0.935   1.571 -0.4776  1.6399  2.6035
 2502SOL     OW 8097   4.692   0.329   1.955  0.0955  0.6979  0.8196
 2502SOL    HW1 8098   4.704   0.294   2.044 -0.5616  1.0730  1.0636
 2502SOL    HW2 8099   4.607   0.372   1.958 -0.0007  0.5744 -0.0447
 2503SOL     OW 8100   3.392   1.744   2.275 -0.0340 -0.2820  0.3684
 2503SOL    HW1 8101   3.347   1.738   2.359  0.6506 -1.0336  0.6979
 2503SOL    HW2 8102   3.475   1.787   2.294  0.9168 -2.0451  0.4484
 2504SOL     OW 8103   5.840   5.271   3.307  0.8581 -0.3292 -0.1495
 2504SOL    HW1 8104   5.772   5.310   3.362  1.3607  1.0195 -0.4320
 2504SOL    HW2 8105   5.880   5.204   3.362  2.2432  1.8699  1.6873
 2505SOL     OW 8106   4.490   0.383   1.165 -0.3377 -0.4001  0.0630
 2505SOL    HW1 8107   4.584   0.382   1.184 -0.2421 -0.9449 -0.4149
 2505SOL    HW2 8108   4.472   0.473   1.141 -0.0390 -0.1760  0.6550
 2506SOL     OW 8109   6.366   4.612   0.633 -0.0578  0.4871 -0.5051
 2506SOL    HW1 8110   6.387   4.519   0.632  0.6417  0.6391 -1.2363
 2506SOL    HW2 8111   6.440   4.654   0.588 -1.2296  1.1977 -1.8740
 2507SOL     OW 8112   6.157   5.384   0.939  0.1426  1.1484  0.0416
 2507SOL    HW1 8113   6.111   5.467   0.951  2.2389  2.1729  1.4128
 2507SOL    HW2 8114   6.231   5.405   0.883  0.2118 -0.0088 -0.3288
 2508SOL     OW 8115   4.915   4.683   0.419  0.7411  0.1372  0.8765
 2508SOL    HW1 8116   4.957   4.751   0.366  0.2558 -0.4838 -0.3491
 2508SOL    HW2 8117   4.986   4.625   0.445  0.8162 -0.3307 -0.3076
 2509SOL     OW 8118   4.407   1.091   0.056  0.4715 -0.0228  0.4351
 2509SOL    HW1 8119   4.493   1.089   0.099  0.1791 -0.2982  1.0130
 2509SOL    HW2 8120   4.351   1.036   0.111  0.4793 -1.7418 -1.1796
 2510SOL     OW 8121   3.322   4.822   2.382  0.3295 -0.5677  0.2546
 2510SOL    HW1 8122   3.272   4.750   2.342 -0.2333 -0.2318  0.3376
 2510SOL    HW2 8123   3.257   4.871   2.432  0.8602 -0.4515  0.8389
 2511SOL     OW 8124   3.422   0.600   1.552  0.3185  0.1537  0.4699
 2511SOL    HW1 8125   3.327   0.601   1.538  0.2642  1.2104  0.7925
 2511SOL    HW2 8126   3.442   0.510   1.575 -0.7045  0.0481  1.0021
 2512SOL     OW 8127   4.652   1.143   2.495  0.0397  0.3956 -0.1166
 2512SOL    HW1 8128   4.745   1.147   2.520  0.2223 -0.9200 -0.5040
 2512SOL    HW2 8129   4.644   1.061   2.448 -1.5686 -0.0488  0.8712
 2513SOL     OW 8130   5.017   1.468   3.352 -0.4407 -0.0409  0.5648
 2513SOL    HW1 8131   5.025   1.516   3.270  0.3532  0.3510  0.8618
 2513SOL    HW2 8132   4.996   1.535   3.417 -0.1035 -0.1998  0.8451
 2514SOL     OW 8133   3.325   1.699   2.986 -0.4239 -0.6389 -0.2484
 2514SOL    HW1 8134   3.237   1.670   2.963 -0.9500  0.6447  0.0542
 2514SOL    HW2 8135   3.326   1.700   3.082 -0.6808  0.9957 -0.2327
 2515SOL     OW 8136   4.489   4.187   0.063  0.2041 -0.3055 -0.2793
 2515SOL    HW1 8137   4.398   4.198   0.034  0.2707  0.0002 -0.3861
 2515SOL    HW2 8138   4.533   4.267   0.032  0.1582  0.3012  1.1430
 2516SOL     OW 8139   3.846   4.967   3.119 -0.1067  0.2829 -0.3603
 2516SOL    HW1 8140   3.826   4.874   3.128 -1.8418  0.6680  0.1596
 2516SOL    HW2 8141   3.845   5.001   3.208  1.1202  0.7008 -0.4892
 2517SOL     OW 8142   4.790   1.392   3.510 -0.2798 -0.1848 -0.2496
 2517SOL    HW1 8143   4.869   1.381   3.457  0.1591  0.0536  0.3423
 2517SOL    HW2 8144   4.720   1.403   3.446  0.2426  0.1078 -0.7877
 2518SOL     OW 8145   6.219   1.867   0.908 -0.2288 -0.6089 -0.2235
 2518SOL    HW1 8146   6.304   1.835   0.937 -0.1055 -0.0675  0.0137
 2518SOL    HW2 8147   6.234   1.957   0.882 -0.8892 -0.2304  0.6370
 2519SOL     OW 8148   5.882   0.182   2.395  0.7277  0.7878  0.0251
 2519SOL    HW1 8149   5.910   0.184   2.304 -0.1953 -0.6369 -0.3165
 2519SOL    HW2 8150   5.799   0.229   2.396  0.7995  0.9157  0.1673
 2520SOL     OW 8151   0.895   0.715   1.560  0.0178 -0.0660  0.0006
 2520SOL    HW1 8152   0.808   0.676   1.549  0.0496  0.1303 -1.0883
 2520SOL    HW2 8153   0.956   0.647   1.529  0.1424  0.3736 -0.7582
 2521SOL     OW 8154   4.269   0.192   0.766  0.3200  0.4215 -0.2931
 2521SOL    HW1 8155   4.232   0.184   0.679  2.2874 -1.2496 -1.0490
 2521SOL    HW2 8156   4.237   0.277   0.798 -1.9394  0.2448 -1.8446
 2522SOL     OW 8157   6.848   0.113   1.949  0.7437  0.8379 -0.2409
 2522SOL    HW1 8158   6.810   0.093   1.864 -0.9828  0.8095  0.4895
 2522SOL    HW2 8159   6.818   0.043   2.007 -0.3576  2.2244  0.9684
 2523SOL     OW 8160   3.572   0.755   0.137 -0.8939  0.0292 -0.0209
 2523SOL    HW1 8161   3.661   0.785   0.158 -1.0344  0.1863  0.3746
 2523SOL    HW2 8162   3.518   0.834   0.146 -0.9621  0.1079 -1.0188
 2524SOL     OW 8163   6.441   0.454   0.070 -0.3568 -0.0347  0.3372
 2524SOL    HW1 8164   6.507   0.445   0.001 -0.8781 -0.4392 -0.1176
 2524SOL    HW2 8165   6.372   0.506   0.030 -0.7324 -0.4029  0.5033
 2525SOL     OW 8166   6.917   5.189   2.413  0.4960  0.4299  0.2815
 2525SOL    HW1 8167   6.831   5.200   2.454  1.0006 -1.2742  1.9513
 2525SOL    HW2 8168   6.932   5.094   2.415  1.5457  0.4898 -1.8958
 2526SOL     OW 8169   4.777   3.659   2.182  0.1034 -0.1394 -0.2619
 2526SOL    HW1 8170   4.845   3.611   2.135  1.0000  1.8791 -1.1203
 2526SOL    HW2 8171   4.720   3.590   2.218  2.5811 -1.9182  0.5630
 2527SOL     OW 8172   2.503   5.281   0.708  0.0292 -0.3476  0.0199
 2527SOL    HW1 8173   2.491   5.375   0.719 -0.2534 -0.3933  0.1152
 2527SOL    HW2 8174   2.555   5.273   0.628 -0.0449 -0.1142 -0.0524
 2528SOL     OW 8175   4.007   1.310   3.081 -0.1149  0.2235 -0.2765
 2528SOL    HW1 8176   4.074   1.330   3.146 -0.3070 -0.4045  0.1276
 2528SOL    HW2 8177   4.005   1.214   3.077 -0.2885  0.2521 -1.0184
 2529SOL     OW 8178   5.323   0.250   1.043  0.1289  0.0447  0.1918
 2529SOL    HW1 8179   5.270   0.234   0.965 -0.8249  1.0622  0.6071
 2529SOL    HW2 8180   5.262   0.239   1.116  0.3247  1.8220  0.6605
 2530SOL     OW 8181   4.931   3.061   3.342  0.0649  0.1983 -0.4549
 2530SOL    HW1 8182   4.991   3.135   3.351 -0.4787  0.6595 -0.5387
 2530SOL    HW2 8183   4.846   3.096   3.369  0.0221 -0.7396  0.7069
 2531SOL     OW 8184   2.903   5.244   3.295  0.8977 -0.4467 -0.5604
 2531SOL    HW1 8185   2.870   5.201   3.374  0.5142 -0.2530 -0.6117
 2531SOL    HW2 8186   2.894   5.179   3.226  0.9372 -0.5083 -0.5072
 2532SOL     OW 8187   5.154   0.042   2.908  0.6088 -0.5694 -0.1143
 2532SOL    HW1 8188   5.242   0.078   2.907 -0.2382  1.7011  0.3098
 2532SOL    HW2 8189   5.159  -0.032   2.969  1.8796  0.5018  1.1515
 2533SOL     OW 8190   5.920   1.981   2.199  0.6990 -0.3794  0.1175
 2533SOL    HW1 8191   5.931   1.931   2.280 -0.9496  0.6427  1.0370
 2533SOL    HW2 8192   5.996   2.040   2.198 -0.0085  0.6477  1.7704
 2534SOL     OW 8193   4.723   4.762   1.105 -0.4907  0.2695 -0.2530
 2534SOL    HW1 8194   4.692   4.706   1.034 -0.2468  0.0748 -0.2043
 2534SOL    HW2 8195   4.699   4.851   1.078 -1.1086  0.1232 -0.2133
 2535SOL     OW 8196   4.284   0.645   0.003  0.0521  0.1470 -0.0386
 2535SOL    HW1 8197   4.372   0.628   0.036 -0.1774  0.0466  0.5293
 2535SOL    HW2 8198   4.291   0.632  -0.092  0.4208 -0.8341  0.1158
 2536SOL     OW 8199   4.005   5.172   1.792  0.4217  0.4989  0.6630
 2536SOL    HW1 8200   4.046   5.157   1.706  0.8989  3.3512  0.3053
 2536SOL    HW2 8201   4.079   5.184   1.851  0.1285  1.3992  0.8645
 2537SOL     OW 8202   3.686   4.912   0.661 -0.0048 -0.1097  0.4854
 2537SOL    HW1 8203   3.675   4.944   0.751 -2.9667 -0.9006  0.5108
 2537SOL    HW2 8204   3.656   4.983   0.606  0.7506 -0.0403  0.1538
 2538SOL     OW 8205   5.515   0.292   0.445 -0.6266  0.5332 -0.0992
 2538SOL    HW1 8206   5.419   0.295   0.452 -0.5605  2.6332  0.5105
 2538SOL    HW2 8207   5.540   0.219   0.501 -1.9235 -1.1916 -1.6131
 2539SOL     OW 8208   2.540   1.301   1.539  0.2636 -0.5225  0.2009
 2539SOL    HW1 8209   2.530   1.244   1.615  1.5241 -0.4937  0.4032
 2539SOL    HW2 8210   2.536   1.390   1.575  1.3701 -0.5122  0.3119
 2540SOL     OW 8211   5.659   1.188   0.862 -0.2862 -0.1069 -0.0938
 2540SOL    HW1 8212   5.748   1.158   0.877  0.2529  0.3496 -2.0610
 2540SOL    HW2 8213   5.661   1.282   0.883 -0.5018 -0.2407  0.5480
 2541SOL     OW 8214   5.417   1.636   0.397  0.4047 -0.3432 -0.4238
 2541SOL    HW1 8215   5.369   1.576   0.340  0.9654  0.6936 -2.0668
 2541SOL    HW2 8216   5.469   1.690   0.337  2.3991 -0.3557  1.1710
 2542SOL     OW 8217   5.044   1.361   0.821 -0.4672 -0.6815  0.0429
 2542SOL    HW1 8218   5.138   1.366   0.841 -0.2557 -0.2339 -1.0304
 2542SOL    HW2 8219   5.015   1.282   0.867 -0.3115  0.9326  3.2103
 2543SOL     OW 8220   2.489   1.764   0.828 -0.2456 -0.2454 -0.3097
 2543SOL    HW1 8221   2.395   1.769   0.848 -0.0099  0.8655  0.5301
 2543SOL    HW2 8222   2.501   1.825   0.755 -0.4391 -1.6113 -1.5530
 2544SOL     OW 8223   4.275   2.131   2.448  0.0422  0.1774 -0.2250
 2544SOL    HW1 8224   4.205   2.194   2.434 -1.1850 -0.6669  1.8339
 2544SOL    HW2 8225   4.264   2.066   2.378 -0.4273  0.7322 -0.6649
 2545SOL     OW 8226   5.235   5.025   1.927  0.6012  0.0714 -0.3790
 2545SOL    HW1 8227   5.153   5.072   1.942  0.0661 -1.3828  1.4884
 2545SOL    HW2 8228   5.275   5.017   2.014  1.1135 -2.1192 -0.7697
 2546SOL     OW 8229   4.540   4.359   0.773 -0.0492 -0.4847 -0.6405
 2546SOL    HW1 8230   4.559   4.329   0.684  2.0672 -1.2257  0.0143
 2546SOL    HW2 8231   4.504   4.283   0.817 -1.4304 -0.0227 -0.9145
 2547SOL     OW 8232   4.614   4.911   2.645  0.1658  0.1116 -0.1059
 2547SOL    HW1 8233   4.700   4.874   2.665  0.6831 -0.5264 -2.9409
 2547SOL    HW2 8234   4.553   4.864   2.702  1.5340 -0.4203  0.9686
 2548SOL     OW 8235   4.112   1.241   2.840  0.7638 -0.1075 -0.4179
 2548SOL    HW1 8236   4.081   1.283   2.919  0.8486  0.9347 -0.9189
 2548SOL    HW2 8237   4.088   1.149   2.850 -0.0618  0.1863  0.3867
 2549SOL     OW 8238   5.372   0.298   2.403 -0.3058 -0.6445  0.3562
 2549SOL    HW1 8239   5.362   0.296   2.498  0.5634  0.0420  0.4708
 2549SOL    HW2 8240   5.341   0.212   2.374 -1.6765 -0.4453  1.1397
 2550SOL     OW 8241   6.170   1.635   3.311 -0.1927 -0.5164 -0.2418
 2550SOL    HW1 8242   6.094   1.662   3.362 -0.6722  0.0750 -1.2508
 2550SOL    HW2 8243   6.244   1.645   3.371 -0.7835 -0.1877  0.4479
 2551SOL     OW 8244   5.346   1.456   2.263 -0.0380 -0.1675  0.1160
 2551SOL    HW1 8245   5.289   1.487   2.193 -1.0424 -1.9696  0.0773
 2551SOL    HW2 8246   5.416   1.409   2.217 -0.0790 -0.3924  0.2864
 2552SOL     OW 8247   4.777   1.679   2.816 -0.2754  0.1099  0.2756
 2552SOL    HW1 8248   4.761   1.586   2.832 -0.0915 -0.0631 -0.5323
 2552SOL    HW2 8249   4.818   1.710   2.897  0.2784 -0.6623  0.2995
 2553SOL     OW 8250   4.577   2.688   3.137  0.1401  0.2771  0.4215
 2553SOL    HW1 8251   4.486   2.663   3.118 -0.0001  1.1224 -0.0644
 2553SOL    HW2 8252   4.576   2.783   3.138  0.7448  0.2965  1.8324
 2554SOL     OW 8253   4.195   1.290   0.475  0.0918  0.0817 -0.1599
 2554SOL    HW1 8254   4.254   1.307   0.401  1.0606  1.3139  0.8593
 2554SOL    HW2 8255   4.254   1.269   0.548 -0.8693 -3.6097 -0.2372
 2555SOL     OW 8256   2.768   2.020   3.023  0.3282 -0.3778 -0.2557
 2555SOL    HW1 8257   2.846   1.975   2.991  0.9057  0.1518  0.3615
 2555SOL    HW2 8258   2.763   2.100   2.970 -0.3321 -0.8479 -0.9199
 2556SOL     OW 8259   5.527   5.362   2.232 -0.0152 -0.6103  0.4900
 2556SOL    HW1 8260   5.533   5.269   2.212  0.1561 -1.2365  3.0606
 2556SOL    HW2 8261   5.603   5.401   2.189 -1.3389 -1.1851 -2.5823
 2557SOL     OW 8262   4.372   5.327   0.422 -0.3927 -0.2981 -0.6980
 2557SOL    HW1 8263   4.314   5.335   0.347 -0.9514 -1.7353 -0.4576
 2557SOL    HW2 8264   4.411   5.240   0.414 -0.5171 -0.5161  0.6824
 2558SOL     OW 8265   4.469   4.650   1.999 -0.1492  0.2611  0.2293
 2558SOL    HW1 8266   4.493   4.602   2.078  2.5575  1.2813  0.1426
 2558SOL    HW2 8267   4.499   4.594   1.927 -0.5689  0.3450 -0.0177
 2559SOL     OW 8268   5.738   1.754   0.913 -0.2462  0.0950  0.2719
 2559SOL    HW1 8269   5.666   1.773   0.853 -0.1490  0.2350  0.1984
 2559SOL    HW2 8270   5.756   1.837   0.957  2.0065  0.9624 -2.0076
 2560SOL     OW 8271   4.479   0.094   3.333  0.3776  0.0426  0.3243
 2560SOL    HW1 8272   4.518   0.125   3.414  0.8178 -0.7560  0.4331
 2560SOL    HW2 8273   4.538   0.025   3.302 -0.4244 -0.5151 -0.0228
 2561SOL     OW 8274   5.900   0.668   3.207 -0.0635  0.3785  0.0654
 2561SOL    HW1 8275   5.944   0.742   3.166  1.5483 -1.0247 -0.8657
 2561SOL    HW2 8276   5.944   0.657   3.292  0.0614  0.1608 -0.0272
 2562SOL     OW 8277   5.363   5.033   0.002 -0.1971  0.0819 -0.0956
 2562SOL    HW1 8278   5.304   4.971  -0.041 -0.9777 -1.4189  2.8776
 2562SOL    HW2 8279   5.449   5.012  -0.033 -0.7796 -1.0971 -0.8935
 2563SOL     OW 8280   1.977   1.398   1.464  0.0972  0.4393 -0.1538
 2563SOL    HW1 8281   1.902   1.362   1.416  0.5172 -1.5586  0.5873
 2563SOL    HW2 8282   2.047   1.404   1.399  0.4541 -1.5900 -0.0203
 2564SOL     OW 8283   6.177   1.373   3.241 -0.3204  0.3459 -0.1321
 2564SOL    HW1 8284   6.262   1.362   3.284  0.3960  3.0817 -0.6466
 2564SOL    HW2 8285   6.144   1.456   3.276 -0.6314  1.6728 -3.3213
 2565SOL     OW 8286   4.511   5.237   0.779 -0.2230  0.2153 -0.0889
 2565SOL    HW1 8287   4.482   5.311   0.726  2.8892  0.3511 -1.8653
 2565SOL    HW2 8288   4.512   5.163   0.719  1.3829 -0.1185  0.2947
 2566SOL     OW 8289   3.765   0.605   3.273  0.1169 -0.2316 -0.0613
 2566SOL    HW1 8290   3.827   0.543   3.312 -0.1782 -0.9365 -0.6733
 2566SOL    HW2 8291   3.679   0.567   3.290 -0.0477 -0.2083 -0.7931
 2567SOL     OW 8292   6.233   1.063   1.726  0.1812 -0.3159 -0.3495
 2567SOL    HW1 8293   6.247   1.092   1.636 -2.9394  1.5888 -0.3857
 2567SOL    HW2 8294   6.233   1.144   1.777 -2.0786 -0.9011  0.6844
 2568SOL     OW 8295   5.975   1.903   0.308 -0.1933 -0.1984 -0.1698
 2568SOL    HW1 8296   5.968   1.808   0.318 -1.2504 -0.0803  0.3689
 2568SOL    HW2 8297   6.000   1.934   0.395 -1.6278  0.1626  0.1278
 2569SOL     OW 8298   0.396   1.320   3.170  0.1795  0.0543 -0.2463
 2569SOL    HW1 8299   0.460   1.356   3.108 -0.5609  0.0385 -1.0444
 2569SOL    HW2 8300   0.448   1.294   3.246  0.9676  1.0793 -0.4120
 2570SOL     OW 8301   3.315   5.265   2.926  0.0470 -0.6701 -0.2104
 2570SOL    HW1 8302   3.407   5.244   2.940 -0.2195 -0.5544  2.1472
 2570SOL    HW2 8303   3.313   5.312   2.842  1.8861 -1.9545 -1.0278
 2571SOL     OW 8304   5.919   3.287   1.530 -0.1389 -0.2499  0.0367
 2571SOL    HW1 8305   5.947   3.283   1.622 -1.2120 -0.2224  0.3805
 2571SOL    HW2 8306   5.844   3.346   1.531  0.7022  0.8807 -1.1047
 2572SOL     OW 8307   2.855   1.419   1.508  0.6557  0.1033  0.2657
 2572SOL    HW1 8308   2.872   1.424   1.414  3.3915 -1.9148  0.5027
 2572SOL    HW2 8309   2.926   1.471   1.548 -0.9025  1.5786  1.2612
 2573SOL     OW 8310   5.288   1.439   3.166  0.2045 -0.0725 -0.3787
 2573SOL    HW1 8311   5.203   1.460   3.129 -1.3466 -2.3921  1.5470
 2573SOL    HW2 8312   5.326   1.524   3.188 -1.2972  1.0502 -1.8375
 2574SOL     OW 8313   5.480   0.863   0.899  0.2131 -0.0358  0.0576
 2574SOL    HW1 8314   5.434   0.922   0.839  0.6443 -1.2125 -1.5082
 2574SOL    HW2 8315   5.506   0.918   0.972  0.3125  1.6300 -1.1903
 2575SOL     OW 8316   4.260   0.259   1.435 -0.3552 -0.4070 -0.0829
 2575SOL    HW1 8317   4.224   0.221   1.515  1.4211  0.4418  1.1918
 2575SOL    HW2 8318   4.184   0.288   1.385 -1.4812 -0.0877  1.7373
 2576SOL     OW 8319   4.920   1.114   2.471 -0.5811 -0.1807  0.1912
 2576SOL    HW1 8320   4.977   1.177   2.515 -0.6554  0.0803 -0.0840
 2576SOL    HW2 8321   4.980   1.058   2.421 -0.6200  0.7221 -0.9086
 2577SOL     OW 8322   3.157   1.360   2.299  0.0075 -0.4576  0.0644
 2577SOL    HW1 8323   3.130   1.445   2.263  1.5880 -0.3140 -0.8773
 2577SOL    HW2 8324   3.189   1.381   2.387  2.3004  0.3265 -0.8761
 2578SOL     OW 8325   5.355   0.753   0.320 -0.4761 -0.4173 -0.1530
 2578SOL    HW1 8326   5.444   0.737   0.352  0.0625  0.6967 -1.0212
 2578SOL    HW2 8327   5.299   0.702   0.379  0.6670 -0.4844  0.9299
 2579SOL     OW 8328   2.823   0.504   0.250  0.3819 -0.3099  0.0488
 2579SOL    HW1 8329   2.784   0.428   0.208  0.9438  0.1415 -1.3325
 2579SOL    HW2 8330   2.869   0.550   0.180  1.3492  0.4773  1.1477
 2580SOL     OW 8331   6.891   1.856   3.445  0.6044  0.0814  0.5800
 2580SOL    HW1 8332   6.973   1.820   3.479 -0.0678 -0.4364  1.7010
 2580SOL    HW2 8333   6.834   1.861   3.522  0.0365  1.7612  0.0928
 2581SOL     OW 8334   5.101   0.378   0.307  0.5339 -0.3357  0.0766
 2581SOL    HW1 8335   5.080   0.311   0.242  3.5177 -0.5992 -0.7345
 2581SOL    HW2 8336   5.016   0.419   0.327 -0.7441 -1.3828 -2.7030
 2582SOL     OW 8337   4.989   1.956   2.672  0.4227  0.0651  0.3073
 2582SOL    HW1 8338   4.983   2.009   2.592 -1.1169 -1.7559 -0.8739
 2582SOL    HW2 8339   5.039   1.878   2.646  1.4041  0.2212  1.6094
 2583SOL     OW 8340   4.788   5.188   1.258 -0.2216 -0.2326  0.6119
 2583SOL    HW1 8341   4.742   5.234   1.328  0.5281  1.2214  0.1760
 2583SOL    HW2 8342   4.740   5.210   1.179 -0.0002 -0.3947  0.4294
 2584SOL     OW 8343   4.075   2.344   0.596  0.5023  0.2568 -0.2060
 2584SOL    HW1 8344   4.036   2.392   0.669  0.4521  0.2778 -0.2464
 2584SOL    HW2 8345   4.020   2.368   0.520 -1.2651 -2.0346  0.2492
 2585SOL     OW 8346   5.360   4.393   2.598  0.4173  0.0161  0.1244
 2585SOL    HW1 8347   5.295   4.323   2.588  0.8174 -0.4227  0.5533
 2585SOL    HW2 8348   5.370   4.429   2.509 -0.9987  0.6387  0.1827
 2586SOL     OW 8349   6.089   0.995   2.571 -0.0582  0.2199 -0.1025
 2586SOL    HW1 8350   6.037   0.987   2.491 -0.1140 -1.6577  0.0722
 2586SOL    HW2 8351   6.024   0.999   2.641  0.0115 -0.0579 -0.0223
 2587SOL     OW 8352   5.725   1.419   2.199  0.4855  0.6885  0.8183
 2587SOL    HW1 8353   5.799   1.395   2.144 -0.3172  0.4920 -0.2143
 2587SOL    HW2 8354   5.725   1.355   2.269  0.8420  0.2222  0.3974
 2588SOL     OW 8355   5.368   0.460   0.221 -0.3629  0.9508 -0.2028
 2588SOL    HW1 8356   5.418   0.403   0.279 -0.6798  0.3127 -0.5547
 2588SOL    HW2 8357   5.283   0.469   0.264 -0.2932  1.2099 -0.1174
 2589SOL     OW 8358   4.976   0.230   1.953 -0.4403 -0.1440  0.2291
 2589SOL    HW1 8359   4.882   0.217   1.940 -0.4001  0.0482 -0.2372
 2589SOL    HW2 8360   5.001   0.296   1.889 -0.1195  0.3260  0.8197
 2590SOL     OW 8361   2.937   0.687   0.086 -0.2539 -0.4352  0.4137
 2590SOL    HW1 8362   3.003   0.744   0.046  0.5244 -1.1260  0.6748
 2590SOL    HW2 8363   2.861   0.694   0.028 -0.1107  0.7118  0.3427
 2591SOL     OW 8364   4.812   3.470   2.480  0.0420  0.3080 -0.4056
 2591SOL    HW1 8365   4.728   3.447   2.440 -0.3878  0.9920  0.0712
 2591SOL    HW2 8366   4.788   3.522   2.557  0.8664 -0.4498  0.3814
 2592SOL     OW 8367   5.846   5.157   2.858  0.0056  0.1525  0.0559
 2592SOL    HW1 8368   5.889   5.243   2.860  0.6700 -0.1679 -0.1542
 2592SOL    HW2 8369   5.823   5.144   2.766  0.6687 -0.2554 -0.0620
 2593SOL     OW 8370   6.780   0.204   2.720 -0.1657  0.2156  0.3615
 2593SOL    HW1 8371   6.793   0.168   2.807 -1.9261  0.2167  0.6515
 2593SOL    HW2 8372   6.869   0.214   2.685  0.5069 -1.4280  1.4614
 2594SOL     OW 8373   5.647   0.345   2.418  0.5351 -0.0734 -0.2133
 2594SOL    HW1 8374   5.560   0.305   2.416  1.0584 -1.2185 -0.8047
 2594SOL    HW2 8375   5.645   0.409   2.347 -0.3758  1.1486  0.8718
 2595SOL     OW 8376   4.924   1.533   1.600  0.5114 -0.2695 -0.4979
 2595SOL    HW1 8377   4.935   1.588   1.522 -0.1614  1.5751  0.6544
 2595SOL    HW2 8378   4.842   1.562   1.639  0.1681 -2.0741  0.2201
 2596SOL     OW 8379   5.732   4.850   3.185  0.2143 -0.1220  0.4591
 2596SOL    HW1 8380   5.694   4.871   3.100 -2.1875 -1.9907  0.9399
 2596SOL    HW2 8381   5.812   4.903   3.190 -0.5770  1.5036 -2.1025
 2597SOL     OW 8382   4.669   4.638   3.040 -0.0419  0.0284 -0.1566
 2597SOL    HW1 8383   4.709   4.601   2.961  2.0631  1.8673 -0.0590
 2597SOL    HW2 8384   4.626   4.718   3.010  0.3155  0.4637  0.4669
 2598SOL     OW 8385   5.997   1.538   1.645  0.1029 -0.3493 -0.0339
 2598SOL    HW1 8386   6.011   1.456   1.598 -0.5876 -0.4433 -0.0919
 2598SOL    HW2 8387   6.067   1.541   1.710  0.0302 -1.0771  0.0918
 2599SOL     OW 8388   4.930   2.516   0.818  0.4368  0.3983 -0.0038
 2599SOL    HW1 8389   4.989   2.441   0.821  1.0298  0.7272 -1.8263
 2599SOL    HW2 8390   4.849   2.481   0.781  0.4854  0.4966 -0.2111
 2600SOL     OW 8391   4.069   5.374   2.323  1.0965 -0.0071 -0.1671
 2600SOL    HW1 8392   4.151   5.374   2.373 -0.0435 -2.3193  1.8963
 2600SOL    HW2 8393   4.013   5.436   2.370  0.3168 -1.5502  1.0496
 2601SOL     OW 8394   4.716   0.193   3.060  0.5269 -0.2901  0.8799
 2601SOL    HW1 8395   4.784   0.193   2.993  0.7978 -0.7348  1.1466
 2601SOL    HW2 8396   4.698   0.100   3.076 -0.9819 -0.1832 -0.0064
 2602SOL     OW 8397   5.680   0.625   1.252  0.4894  0.0755  0.1335
 2602SOL    HW1 8398   5.644   0.710   1.227  2.2806  0.6243 -0.7610
 2602SOL    HW2 8399   5.737   0.643   1.326  1.7309 -0.1391 -0.7486
 2603SOL     OW 8400   4.838   1.649   2.028  0.0535  0.8908  0.3043
 2603SOL    HW1 8401   4.908   1.615   1.971  1.2907  0.9140  1.7184
 2603SOL    HW2 8402   4.808   1.728   1.985 -1.4425 -0.8073 -2.0245
 2604SOL     OW 8403   5.656   4.280   1.702  0.1120 -0.2691  0.1902
 2604SOL    HW1 8404   5.684   4.363   1.739  0.8313 -0.8952  1.0846
 2604SOL    HW2 8405   5.728   4.253   1.645  0.2411 -0.6693  0.5360
 2605SOL     OW 8406   5.750   2.211   1.588  0.1110  0.0881 -0.0496
 2605SOL    HW1 8407   5.718   2.297   1.560  1.1838  0.2209 -0.9280
 2605SOL    HW2 8408   5.696   2.189   1.664 -0.0057  1.6662  0.3546
 2606SOL     OW 8409   5.831   4.828   2.671 -0.3798  0.0121 -0.0817
 2606SOL    HW1 8410   5.787   4.758   2.623  1.6827 -2.0427  0.8247
 2606SOL    HW2 8411   5.829   4.903   2.611 -2.8153 -0.7161 -1.0261
 2607SOL     OW 8412   5.459   5.125   3.083 -0.5905  0.2077 -0.2537
 2607SOL    HW1 8413   5.389   5.178   3.122  0.2331  0.0678  1.5479
 2607SOL    HW2 8414   5.537   5.180   3.090 -0.1765 -0.3409 -0.5139
 2608SOL     OW 8415   4.313   1.035   1.515 -0.4981 -0.6154  0.4648
 2608SOL    HW1 8416   4.388   1.041   1.574 -0.3872  2.1583  0.1720
 2608SOL    HW2 8417   4.255   1.106   1.541 -0.6929  0.4025 -2.3656
 2609SOL     OW 8418   4.557   1.963   0.213  0.0649 -0.3525  0.2392
 2609SOL    HW1 8419   4.469   1.991   0.239 -0.1313 -0.4940 -0.2732
 2609SOL    HW2 8420   4.545   1.872   0.184  0.4355 -0.4732  0.4573
 2610SOL     OW 8421   3.202   1.911   0.892 -0.3015 -0.3730 -0.4379
 2610SOL    HW1 8422   3.205   1.923   0.797 -0.0089 -3.4204 -0.9378
 2610SOL    HW2 8423   3.292   1.928   0.921  0.7870 -3.5029 -1.4862
 2611SOL     OW 8424   4.821   1.936   3.350 -0.3547 -0.7760 -0.5228
 2611SOL    HW1 8425   4.759   2.009   3.357  1.1114  0.3681  1.7193
 2611SOL    HW2 8426   4.875   1.958   3.274  0.1903  0.6454  0.2316
 2612SOL     OW 8427   7.215   3.584   0.401  0.3582 -0.1631  0.0504
 2612SOL    HW1 8428   7.197   3.496   0.369 -0.0312 -0.2943  0.6049
 2612SOL    HW2 8429   7.129   3.620   0.423  0.4951  0.4277 -0.3393
 2613SOL     OW 8430   6.041   2.410   3.135 -0.4368  0.2385 -0.0790
 2613SOL    HW1 8431   5.987   2.333   3.155 -0.3232  0.2172  0.1417
 2613SOL    HW2 8432   5.979   2.483   3.139 -0.5124  0.1776 -0.1271
 2614SOL     OW 8433   5.582   3.291   0.681 -0.2460  0.2788 -0.0358
 2614SOL    HW1 8434   5.558   3.303   0.589 -0.0404 -1.1764 -0.3049
 2614SOL    HW2 8435   5.526   3.220   0.711  0.6519 -0.2056  0.5574
 2615SOL     OW 8436   4.218   1.906   2.271 -0.2233 -0.0738 -0.3918
 2615SOL    HW1 8437   4.277   1.864   2.334 -0.2201 -0.0359 -0.3692
 2615SOL    HW2 8438   4.204   1.840   2.204  0.3978  0.1563 -0.7532
 2616SOL     OW 8439   3.213   2.112   2.187  0.6112  0.2428 -0.6566
 2616SOL    HW1 8440   3.276   2.185   2.184  0.0075  0.7499 -1.5682
 2616SOL    HW2 8441   3.205   2.085   2.096  1.1951 -1.3142 -0.2729
 2617SOL     OW 8442   4.477   4.006   2.071 -0.3562  0.0236 -0.2104
 2617SOL    HW1 8443   4.512   3.960   1.995 -2.2869 -0.4438 -0.8841
 2617SOL    HW2 8444   4.435   3.938   2.123  0.9377  0.3420  1.3060
 2618SOL     OW 8445   6.695   1.535   1.741  0.2822 -0.2017 -0.2496
 2618SOL    HW1 8446   6.664   1.505   1.826 -0.7118 -1.7590 -1.1106
 2618SOL    HW2 8447   6.751   1.610   1.761 -2.3492  1.4635  1.5795
 2619SOL     OW 8448   5.584   2.521   2.313  0.0246 -1.0027  0.2429
 2619SOL    HW1 8449   5.632   2.545   2.233 -1.2400  1.2320  0.0852
 2619SOL    HW2 8450   5.633   2.447   2.348 -0.1302 -3.0538 -3.3173
 2620SOL     OW 8451   2.721   4.277   0.376  0.7183 -0.3797  0.0181
 2620SOL    HW1 8452   2.643   4.231   0.345 -0.6390  1.1885  0.9271
 2620SOL    HW2 8453   2.690   4.326   0.453  2.4984  0.6251  0.1344
 2621SOL     OW 8454   4.990   2.541   2.175  0.0854  0.6814  0.2448
 2621SOL    HW1 8455   4.991   2.590   2.093  2.9830  0.3873  0.0258
 2621SOL    HW2 8456   5.033   2.599   2.238  0.8129 -0.3673  0.7402
 2622SOL     OW 8457   2.623   2.679   0.275  0.0735 -0.1968 -0.2516
 2622SOL    HW1 8458   2.631   2.663   0.369 -3.3911  1.3013  0.4516
 2622SOL    HW2 8459   2.677   2.756   0.259  1.8666 -1.3091  0.1183
 2623SOL     OW 8460   3.744   0.837   1.910 -0.2150 -0.2644  0.3618
 2623SOL    HW1 8461   3.793   0.800   1.984  1.9007 -0.4765 -1.0637
 2623SOL    HW2 8462   3.652   0.825   1.935  0.3446  0.9982  3.6033
 2624SOL     OW 8463   2.460   3.997   3.272 -0.4348 -0.0223  0.4645
 2624SOL    HW1 8464   2.422   4.038   3.194 -2.2131  2.0244  2.2758
 2624SOL    HW2 8465   2.386   3.958   3.318 -0.3603  2.7797  3.3559
 2625SOL     OW 8466   4.526   2.102   3.464  0.9240  0.0621  0.3644
 2625SOL    HW1 8467   4.586   2.127   3.393  2.5596  1.2022  2.0494
 2625SOL    HW2 8468   4.583   2.063   3.530 -0.6257 -1.4289  0.8905
 2626SOL     OW 8469   5.721   1.625   2.443  0.3765 -0.4636 -0.1003
 2626SOL    HW1 8470   5.727   1.580   2.359 -2.1125 -1.7689  0.3338
 2626SOL    HW2 8471   5.628   1.646   2.453  0.7274  0.3815  1.9747
 2627SOL     OW 8472   4.768   2.716   0.389 -0.0129  0.3302  0.1557
 2627SOL    HW1 8473   4.822   2.670   0.453  2.4339  0.4791 -1.6805
 2627SOL    HW2 8474   4.794   2.807   0.396  0.7752  0.2605 -1.4176
 2628SOL     OW 8475   3.245   2.328   1.979 -0.3635 -0.1096 -0.2375
 2628SOL    HW1 8476   3.224   2.418   1.955  0.3103  0.2616  0.5151
 2628SOL    HW2 8477   3.211   2.275   1.906 -1.3913  0.6826 -0.3537
 2629SOL     OW 8478   2.675   3.756   0.040 -0.7781 -0.1155  0.1430
 2629SOL    HW1 8479   2.694   3.687   0.104 -0.8438 -0.3654 -0.1016
 2629SOL    HW2 8480   2.750   3.756  -0.019 -0.4762  0.4737  0.5269
 2630SOL     OW 8481   5.791   3.099   2.839  0.3101 -0.0590  0.4077
 2630SOL    HW1 8482   5.791   3.011   2.801 -0.1306  0.5563 -1.0979
 2630SOL    HW2 8483   5.821   3.086   2.929  0.3292 -1.7327  0.1995
 2631SOL     OW 8484   3.333   0.097   1.319 -0.6489 -0.5005  0.5630
 2631SOL    HW1 8485   3.410   0.153   1.327  0.6034 -2.3999  2.6504
 2631SOL    HW2 8486   3.268   0.138   1.377 -0.1146 -0.5950  1.2395
 2632SOL     OW 8487   4.545   2.071   1.785 -0.1586  0.0166 -0.0167
 2632SOL    HW1 8488   4.459   2.099   1.815  0.1496  0.3608  0.5911
 2632SOL    HW2 8489   4.602   2.146   1.804  0.4277 -0.5102  0.3741
 2633SOL     OW 8490   5.037   2.516   2.492  0.1424 -0.4866  0.0779
 2633SOL    HW1 8491   4.963   2.576   2.482 -0.7630 -1.6607 -0.4942
 2633SOL    HW2 8492   5.024   2.449   2.425  0.7329 -1.7047  1.1150
 2634SOL     OW 8493   4.661   2.238   0.542  0.6584 -0.3384  0.0634
 2634SOL    HW1 8494   4.620   2.272   0.462  0.9278 -0.6439 -0.2086
 2634SOL    HW2 8495   4.588   2.218   0.600  0.4878  0.4928  0.1442
 2635SOL     OW 8496   6.766   1.652   2.264  0.4970  0.4142 -0.0661
 2635SOL    HW1 8497   6.783   1.569   2.218 -0.2489  0.2026  0.0335
 2635SOL    HW2 8498   6.749   1.714   2.194 -2.4956 -0.3087 -0.1117
 2636SOL     OW 8499   4.779   3.151   2.834 -0.2012 -0.2465  0.2737
 2636SOL    HW1 8500   4.834   3.229   2.841 -0.7974  0.0950  1.3630
 2636SOL    HW2 8501   4.689   3.185   2.838 -0.4805 -0.9089 -0.1812
 2637SOL     OW 8502   5.452   2.152   1.802 -0.4745  0.5204 -0.2347
 2637SOL    HW1 8503   5.456   2.103   1.720 -0.4440 -0.4430  0.3233
 2637SOL    HW2 8504   5.543   2.154   1.833 -0.7262 -0.6915  0.6533
 2638SOL     OW 8505   5.596   2.126   3.103  0.5244 -0.2723 -0.1116
 2638SOL    HW1 8506   5.623   2.090   3.019  0.5151  0.5291 -0.4630
 2638SOL    HW2 8507   5.559   2.212   3.082  0.5772 -0.0388  0.7157
 2639SOL     OW 8508   4.936   3.004   2.674  0.0212  0.1972 -0.2242
 2639SOL    HW1 8509   4.865   3.025   2.735 -0.2163 -1.0787 -0.0343
 2639SOL    HW2 8510   4.891   2.967   2.597  0.5011 -1.4974  0.2738
 2640SOL     OW 8511   5.900   3.390   1.991 -0.1100  0.1612 -0.6740
 2640SOL    HW1 8512   5.831   3.425   2.046 -0.3501 -1.7202  0.2984
 2640SOL    HW2 8513   5.966   3.460   1.987 -1.4825  1.5033 -0.6065
 2641SOL     OW 8514   5.380   3.133   2.663  0.7986 -0.2725  0.0438
 2641SOL    HW1 8515   5.382   3.111   2.570  1.6193 -0.7955  0.1707
 2641SOL    HW2 8516   5.340   3.057   2.705 -0.1652  0.2282  0.0676
 2642SOL     OW 8517   3.672   2.179   2.906 -0.1996 -0.5620  0.1291
 2642SOL    HW1 8518   3.618   2.141   2.837  0.1808 -0.1098 -0.4316
 2642SOL    HW2 8519   3.738   2.113   2.924  1.6622  0.4757 -2.2088
 2643SOL     OW 8520   4.023   3.143   1.541 -0.1196 -0.1121  0.1920
 2643SOL    HW1 8521   3.937   3.114   1.511 -0.2093  1.5674 -1.3945
 2643SOL    HW2 8522   4.083   3.117   1.471  0.7511 -1.4449  1.3716
 2644SOL     OW 8523   4.860   2.904   1.488  0.0276  0.5949  0.0998
 2644SOL    HW1 8524   4.796   2.874   1.552 -1.4552  1.1439 -1.0741
 2644SOL    HW2 8525   4.850   2.842   1.415  1.6448  0.0113  0.3386
 2645SOL     OW 8526   5.766   5.102   0.085  0.3458  0.4137 -0.0597
 2645SOL    HW1 8527   5.746   5.068   0.173  1.9311 -1.2359 -0.2779
 2645SOL    HW2 8528   5.827   5.174   0.101 -1.4518  1.9409  0.2890
 2646SOL     OW 8529   5.785   1.471   0.541  0.6186  0.3494 -0.5120
 2646SOL    HW1 8530   5.746   1.554   0.570  0.6632  0.6074 -1.1650
 2646SOL    HW2 8531   5.712   1.409   0.541  0.3704  0.6360 -0.9634
 2647SOL     OW 8532   3.921   2.309   0.874 -0.3455 -0.0111  0.3920
 2647SOL    HW1 8533   3.829   2.336   0.876 -0.4380 -0.1315 -1.1509
 2647SOL    HW2 8534   3.970   2.391   0.880 -0.5715  0.1540  0.0118
 2648SOL     OW 8535   4.245   2.420   1.856 -0.5167  0.3576  0.0967
 2648SOL    HW1 8536   4.267   2.474   1.780  1.1064 -0.0585  0.2224
 2648SOL    HW2 8537   4.318   2.435   1.917  1.2205 -3.5723 -0.7431
 2649SOL     OW 8538   6.976   3.363   2.399  0.6462  0.3849 -0.8245
 2649SOL    HW1 8539   6.996   3.425   2.468  0.8066  0.0465 -0.5619
 2649SOL    HW2 8540   6.880   3.362   2.394  0.6185  0.1395 -0.3491
 2650SOL     OW 8541   5.056   1.533   3.067 -0.4712  0.0034  0.0342
 2650SOL    HW1 8542   5.036   1.453   3.018 -1.6953  0.7849 -0.8074
 2650SOL    HW2 8543   5.049   1.603   3.002 -0.5555  0.9060  0.9915
 2651SOL     OW 8544   5.699   3.003   0.626  0.2822  0.8805 -0.4327
 2651SOL    HW1 8545   5.729   2.912   0.631 -1.1037  0.3622 -1.1935
 2651SOL    HW2 8546   5.742   3.038   0.548 -1.7940 -0.1831 -2.1505
 2652SOL     OW 8547   4.269   1.996   3.445  0.5553 -0.1371  0.5471
 2652SOL    HW1 8548   4.223   2.080   3.442  1.4893  0.3436 -1.3600
 2652SOL    HW2 8549   4.362   2.019   3.447  0.8094 -1.1271  0.6576
 2653SOL     OW 8550   5.564   1.335   0.314  0.0081  0.0208 -0.1810
 2653SOL    HW1 8551   5.488   1.383   0.280  1.7932  3.5407  0.3526
 2653SOL    HW2 8552   5.544   1.319   0.406  0.0227  1.2321  0.0423
 2654SOL     OW 8553   4.132   4.047   0.885  0.5142  0.2738 -0.0096
 2654SOL    HW1 8554   4.084   3.965   0.897 -0.3287  0.8931  1.0861
 2654SOL    HW2 8555   4.064   4.114   0.888  1.3747  1.1264  0.7389
 2655SOL     OW 8556   4.765   3.633   0.036 -0.0403  0.0080 -0.6050
 2655SOL    HW1 8557   4.758   3.727   0.053 -0.3247 -0.2399  0.7738
 2655SOL    HW2 8558   4.832   3.626  -0.032 -0.1179  1.2141 -0.8306
 2656SOL     OW 8559   4.514   1.906   1.554  0.1680  0.2291 -0.0119
 2656SOL    HW1 8560   4.508   1.969   1.482 -2.1729  0.2818  0.1679
 2656SOL    HW2 8561   4.517   1.959   1.633 -2.9391  0.2282  0.2141
 2657SOL     OW 8562   3.338   2.964   3.005  0.6610  0.6334  0.8003
 2657SOL    HW1 8563   3.283   3.042   3.016 -0.5445 -0.1401  0.5023
 2657SOL    HW2 8564   3.368   2.943   3.093 -0.9096  0.1271  1.2570
 2658SOL     OW 8565   0.486   1.671   3.536  0.1656  0.0079  0.5516
 2658SOL    HW1 8566   0.483   1.766   3.523  1.3673  0.4097  2.6820
 2658SOL    HW2 8567   0.528   1.637   3.458  2.8507  1.6505  1.1637
 2659SOL     OW 8568   3.718   2.346   1.761 -0.4080  0.4071 -0.0980
 2659SOL    HW1 8569   3.813   2.345   1.775 -0.3592 -0.2316 -0.4469
 2659SOL    HW2 8570   3.693   2.438   1.774  0.1305  0.4376  0.8334
 2660SOL     OW 8571   4.283   3.951   0.033  0.3104  0.2393 -0.2374
 2660SOL    HW1 8572   4.275   3.973   0.126  0.2310  0.6629 -0.3430
 2660SOL    HW2 8573   4.290   3.856   0.032 -0.1399  0.1993  0.1710
 2661SOL     OW 8574   4.004   2.342   1.767 -0.1405  0.1898  0.0777
 2661SOL    HW1 8575   4.077   2.371   1.822 -0.5044  0.3668  0.4789
 2661SOL    HW2 8576   4.039   2.270   1.715  0.2528  0.1173  0.4427
 2662SOL     OW 8577   4.719   3.136   2.164  0.3405 -0.2944  0.2218
 2662SOL    HW1 8578   4.664   3.144   2.242 -0.7564 -1.4586 -0.4022
 2662SOL    HW2 8579   4.806   3.161   2.193 -0.6317  2.4833  1.0409
 2663SOL     OW 8580   5.519   3.550   1.038  0.1136 -0.5637 -0.4032
 2663SOL    HW1 8581   5.509   3.565   1.132  0.1520  1.8320 -0.7308
 2663SOL    HW2 8582   5.524   3.455   1.030  0.6138 -0.8179  2.0555
 2664SOL     OW 8583   4.969   0.788   3.477 -0.5595 -0.1806 -0.0539
 2664SOL    HW1 8584   4.881   0.824   3.490 -0.2898  0.3665  0.2946
 2664SOL    HW2 8585   5.026   0.845   3.528  0.0692 -0.2095 -0.7157
 2665SOL     OW 8586   5.630   0.705   0.398 -0.5923 -0.0108 -0.8235
 2665SOL    HW1 8587   5.651   0.691   0.306 -1.2520  2.0340 -1.3341
 2665SOL    HW2 8588   5.708   0.745   0.435  0.0409 -1.7285 -0.2058
 2666SOL     OW 8589   3.232   2.613   2.889  0.1346 -0.5750  0.4662
 2666SOL    HW1 8590   3.264   2.681   2.831 -1.8608  0.9105  0.9663
 2666SOL    HW2 8591   3.304   2.597   2.950  0.3033  1.9742  1.0468
 2667SOL     OW 8592   6.106   2.680   1.934 -0.3566  0.3888 -0.0024
 2667SOL    HW1 8593   6.019   2.640   1.936 -0.4417  0.5979  1.8028
 2667SOL    HW2 8594   6.101   2.744   1.863 -1.2813 -0.4131 -0.7007
 2668SOL     OW 8595   5.850   1.377   3.430  0.0473 -0.0422  0.0478
 2668SOL    HW1 8596   5.844   1.281   3.434  0.4759 -0.2393 -2.5681
 2668SOL    HW2 8597   5.761   1.406   3.411  0.2951 -0.1306 -1.3629
 2669SOL     OW 8598   4.035   0.079   1.946  0.3329 -0.7118  0.3108
 2669SOL    HW1 8599   4.077   0.164   1.934  2.0942 -1.7323 -1.5464
 2669SOL    HW2 8600   4.000   0.057   1.859 -3.3413 -0.3780  1.5458
 2670SOL     OW 8601   4.224   2.114   1.857 -0.2200  0.9856 -0.0839
 2670SOL    HW1 8602   4.147   2.114   1.800 -0.7772  1.8064  0.6424
 2670SOL    HW2 8603   4.231   2.205   1.888  1.5655  1.1433 -0.8108
 2671SOL     OW 8604   5.427   1.259   0.542  0.7106  0.1065  0.1399
 2671SOL    HW1 8605   5.398   1.259   0.633  1.2601  1.3071  0.3416
 2671SOL    HW2 8606   5.472   1.176   0.530 -1.0602 -0.9468  0.3759
 2672SOL     OW 8607   6.095   2.004   2.984 -0.4335  0.0856  0.2614
 2672SOL    HW1 8608   6.057   1.924   2.947 -0.9024  0.4130  0.0260
 2672SOL    HW2 8609   6.085   1.994   3.079  0.2419 -0.4931  0.2848
 2673SOL     OW 8610   4.097   1.577   3.446  0.0202 -0.4982  0.0991
 2673SOL    HW1 8611   4.061   1.633   3.377 -1.9681 -1.3978  0.3284
 2673SOL    HW2 8612   4.050   1.603   3.525  0.4698 -1.1575  0.5962
 2674SOL     OW 8613   6.044   2.642   0.888  0.0558  0.0432  0.2104
 2674SOL    HW1 8614   6.127   2.633   0.935  0.0589 -0.1748  0.1640
 2674SOL    HW2 8615   6.016   2.552   0.872  0.4311  0.1070 -0.8695
 2675SOL     OW 8616   6.679   1.660   1.503 -0.6033 -0.1402  0.2223
 2675SOL    HW1 8617   6.642   1.739   1.543  1.4097  0.2698  1.3805
 2675SOL    HW2 8618   6.664   1.591   1.567 -2.5363 -0.8217 -0.8717
 2676SOL     OW 8619   4.586   0.677   1.869 -0.3853  0.2447  0.4879
 2676SOL    HW1 8620   4.588   0.764   1.831  0.0618  0.0097 -0.0430
 2676SOL    HW2 8621   4.654   0.677   1.936 -1.1147  0.6321  1.2468
 2677SOL     OW 8622   3.673   1.815   2.284  0.0392  0.0499  0.0504
 2677SOL    HW1 8623   3.675   1.853   2.196  0.6040  2.0902  0.8630
 2677SOL    HW2 8624   3.752   1.761   2.288 -0.6040 -1.0082 -1.0552
 2678SOL     OW 8625   5.017   1.112   0.546 -0.1548 -1.1382  0.9196
 2678SOL    HW1 8626   4.969   1.030   0.541  0.6801 -1.6197  0.6926
 2678SOL    HW2 8627   5.065   1.117   0.463 -1.9221  0.6810 -0.0820
 2679SOL     OW 8628   5.016   2.783   0.817  0.1894 -0.4602  0.1923
 2679SOL    HW1 8629   4.987   2.692   0.832  1.4520 -0.9046  0.0111
 2679SOL    HW2 8630   5.013   2.793   0.722  0.9263 -0.6163  0.1492
 2680SOL     OW 8631   5.775   3.008   2.292 -0.4101  0.1483 -0.0916
 2680SOL    HW1 8632   5.790   3.014   2.386  0.5370  0.5851 -0.2606
 2680SOL    HW2 8633   5.856   3.040   2.253 -0.0454 -1.7985 -1.0681
 2681SOL     OW 8634   5.491   4.046   2.799 -0.2326  0.0533 -0.5293
 2681SOL    HW1 8635   5.544   3.983   2.849 -1.7913 -0.3700  0.7010
 2681SOL    HW2 8636   5.414   3.996   2.773 -0.9122  1.1199 -0.6232
 2682SOL     OW 8637   4.605   2.175   0.843  0.1250 -0.0118  0.1923
 2682SOL    HW1 8638   4.597   2.201   0.935  1.5030 -0.6120  0.5095
 2682SOL    HW2 8639   4.694   2.140   0.836 -0.0642 -0.2483 -1.3072
 2683SOL     OW 8640   6.193   1.318   0.194 -0.0803 -0.0663 -0.0222
 2683SOL    HW1 8641   6.167   1.240   0.145  0.0745 -0.2031  0.1108
 2683SOL    HW2 8642   6.286   1.304   0.212 -0.1586 -0.0535  0.3854
 2684SOL     OW 8643   3.928   1.319   0.559  0.1142 -0.5354  0.1590
 2684SOL    HW1 8644   4.017   1.301   0.529 -0.1588  0.3941 -1.3081
 2684SOL    HW2 8645   3.938   1.344   0.651  1.4847  0.3602 -0.2043
 2685SOL     OW 8646   4.782   1.464   0.822  0.4558 -0.4360  0.0916
 2685SOL    HW1 8647   4.735   1.382   0.832  0.8333 -0.5125  1.5752
 2685SOL    HW2 8648   4.875   1.439   0.825  0.5712  0.0170  0.5257
 2686SOL     OW 8649   4.691   2.605   1.912  0.4247  0.5213 -0.4351
 2686SOL    HW1 8650   4.786   2.592   1.911  0.5053  0.9977  0.3161
 2686SOL    HW2 8651   4.676   2.674   1.847  0.6261  0.6510 -0.3462
 2687SOL     OW 8652   4.447   1.702   3.276  0.4778  0.2838 -0.1339
 2687SOL    HW1 8653   4.432   1.753   3.196 -1.5024 -0.8583 -0.5515
 2687SOL    HW2 8654   4.528   1.654   3.258  0.0387  0.0017 -1.5100
 2688SOL     OW 8655   5.663   2.184   0.856 -0.4785 -0.2217  0.1752
 2688SOL    HW1 8656   5.662   2.280   0.863  0.2814 -0.0480 -1.5994
 2688SOL    HW2 8657   5.571   2.159   0.865 -0.8608  0.8054 -0.6463
 2689SOL     OW 8658   4.868   0.055   0.975 -0.7076  0.2739 -0.1099
 2689SOL    HW1 8659   4.795  -0.001   0.949 -0.0629 -0.2602 -0.8005
 2689SOL    HW2 8660   4.872   0.047   1.071 -1.9087  0.7759 -0.0018
 2690SOL     OW 8661   2.926   0.557   2.986  0.2671  0.3279  0.1109
 2690SOL    HW1 8662   2.998   0.618   2.996 -1.2686  2.1290  0.7000
 2690SOL    HW2 8663   2.917   0.515   3.071  0.0926  0.7333  0.2951
 2691SOL     OW 8664   4.670   2.802   1.673 -0.7284 -0.0651 -0.2588
 2691SOL    HW1 8665   4.663   2.872   1.737 -1.1670 -0.4603  0.1320
 2691SOL    HW2 8666   4.587   2.805   1.625 -0.2905  0.4176 -1.0161
 2692SOL     OW 8667   4.417   3.807   3.333  0.3789 -0.4274 -0.3850
 2692SOL    HW1 8668   4.423   3.746   3.259  1.0194  0.4451 -1.0729
 2692SOL    HW2 8669   4.342   3.863   3.312  1.3635  0.6802 -1.0647
 2693SOL     OW 8670   4.567   2.086   2.182 -0.2459 -0.4742  0.1870
 2693SOL    HW1 8671   4.550   2.001   2.223 -2.0993 -0.1336  0.2280
 2693SOL    HW2 8672   4.535   2.077   2.093  1.9553 -0.5828 -0.6612
 2694SOL     OW 8673   5.446   3.182   3.325  0.0259  0.3662 -0.1653
 2694SOL    HW1 8674   5.513   3.246   3.347  0.1405  0.8660 -1.8185
 2694SOL    HW2 8675   5.451   3.174   3.230 -1.2049 -0.7688 -0.1674
 2695SOL     OW 8676   4.918   2.641   3.357 -0.5075  0.3567 -0.3952
 2695SOL    HW1 8677   4.952   2.711   3.301 -1.5046  1.9012  0.8459
 2695SOL    HW2 8678   4.989   2.625   3.419  0.7797 -1.6659 -2.2260
 2696SOL     OW 8679   4.031   0.369   0.848 -0.6313 -0.5274 -0.2171
 2696SOL    HW1 8680   4.076   0.331   0.924 -1.0872 -0.1795  0.2320
 2696SOL    HW2 8681   3.956   0.416   0.885  0.0872  1.1003 -0.7232
 2697SOL     OW 8682   3.894   3.859   3.315 -0.0863  0.0406  0.2423
 2697SOL    HW1 8683   3.815   3.898   3.353 -1.4301 -0.6669 -1.6642
 2697SOL    HW2 8684   3.861   3.791   3.256  1.9973 -0.7754 -0.0606
 2698SOL     OW 8685   4.628   2.307   2.357 -0.0116 -0.2874  0.0814
 2698SOL    HW1 8686   4.607   2.232   2.300  3.3596 -1.0880 -0.3273
 2698SOL    HW2 8687   4.675   2.367   2.300 -1.4084  1.5609  0.7808
 2699SOL     OW 8688   3.343   0.377   2.858 -0.1600  0.0870  0.0016
 2699SOL    HW1 8689   3.391   0.459   2.868 -0.0887  0.0329  0.1181
 2699SOL    HW2 8690   3.311   0.358   2.947 -1.8205  0.9715 -0.3670
 2700SOL     OW 8691   4.222   2.839   1.677  0.1336 -0.4152  0.1922
 2700SOL    HW1 8692   4.244   2.926   1.710 -0.1013 -0.0588 -0.5811
 2700SOL    HW2 8693   4.129   2.845   1.653  0.3185 -0.6365 -0.6150
 2701SOL     OW 8694   4.583   0.947   1.815  0.1074  0.0652 -0.5897
 2701SOL    HW1 8695   4.640   1.009   1.861 -1.0777 -0.4138  1.6768
 2701SOL    HW2 8696   4.594   0.969   1.723  1.7427  1.8763 -0.0447
 2702SOL     OW 8697   4.126   1.355   1.662 -0.1981  0.3602  0.1219
 2702SOL    HW1 8698   4.180   1.432   1.645 -0.6484  0.3328 -1.6582
 2702SOL    HW2 8699   4.052   1.388   1.712 -0.1364  1.0055 -0.2011
 2703SOL     OW 8700   4.202   2.091   0.548  0.0170  0.5654  0.4634
 2703SOL    HW1 8701   4.172   2.072   0.459  0.8872 -3.1200  0.7611
 2703SOL    HW2 8702   4.154   2.169   0.574  0.2522  2.2239 -3.4254
 2704SOL     OW 8703   6.143   2.155   2.657  0.3525 -0.1265  0.3596
 2704SOL    HW1 8704   6.079   2.157   2.728  0.7842  3.2022  0.7999
 2704SOL    HW2 8705   6.205   2.223   2.679  1.2085  0.1696 -2.6119
 2705SOL     OW 8706   3.694   1.406   0.424  0.0603 -0.7220 -0.0371
 2705SOL    HW1 8707   3.770   1.376   0.475 -0.6147 -0.7235  1.0001
 2705SOL    HW2 8708   3.637   1.447   0.488 -0.3773  0.1683 -0.9762
 2706SOL     OW 8709   5.777   1.166   0.474  0.3993  0.5534  0.2653
 2706SOL    HW1 8710   5.860   1.170   0.522 -1.0450 -0.2603  3.0360
 2706SOL    HW2 8711   5.717   1.121   0.533 -1.8678  0.4477 -1.9378
 2707SOL     OW 8712   5.144   4.716   2.340  0.4114  0.2109  0.3221
 2707SOL    HW1 8713   5.097   4.702   2.422  2.2282  0.1068  1.3898
 2707SOL    HW2 8714   5.218   4.771   2.364  1.2432 -0.2109 -1.1568
 2708SOL     OW 8715   5.479   3.606   1.318  0.7113 -0.1601 -0.2668
 2708SOL    HW1 8716   5.561   3.655   1.328  0.1828  0.5275  0.9506
 2708SOL    HW2 8717   5.411   3.674   1.314  0.1835 -0.7255 -1.1224
 2709SOL     OW 8718   7.063   1.994   2.470  0.1426  0.0715  0.5726
 2709SOL    HW1 8719   7.044   1.919   2.414  1.3912 -0.3660  0.7068
 2709SOL    HW2 8720   7.113   2.053   2.414 -1.7885  1.3709  0.1099
 2710SOL     OW 8721   2.839   0.668   1.723  0.2306 -0.6090 -0.2273
 2710SOL    HW1 8722   2.836   0.686   1.629  0.5701 -0.1911 -0.1649
 2710SOL    HW2 8723   2.885   0.585   1.731  1.3501 -0.0326 -0.3746
 2711SOL     OW 8724   6.571   1.250   3.447  0.5243 -0.0905  0.0310
 2711SOL    HW1 8725   6.520   1.238   3.367  1.9308  0.3003 -0.9757
 2711SOL    HW2 8726   6.508   1.236   3.518 -0.6737 -0.8566 -1.1226
 2712SOL     OW 8727   4.580   1.398   3.345  0.1147 -0.3558 -0.8525
 2712SOL    HW1 8728   4.545   1.319   3.304 -1.1689  0.0932 -0.6740
 2712SOL    HW2 8729   4.589   1.460   3.272 -0.4992 -0.1232 -0.7338
 2713SOL     OW 8730   2.980   2.562   3.355 -0.0831  0.0553 -0.2354
 2713SOL    HW1 8731   3.023   2.625   3.298 -0.9368  1.7109  0.8780
 2713SOL    HW2 8732   2.903   2.534   3.305  0.0919  0.1694 -0.5752
 2714SOL     OW 8733   4.466   1.949   2.638 -0.4402  0.5005  0.5262
 2714SOL    HW1 8734   4.553   1.926   2.671 -0.7757 -0.8530  0.4953
 2714SOL    HW2 8735   4.463   2.045   2.645  0.4316  0.4549  2.0863
 2715SOL     OW 8736   4.153   3.708   2.557 -0.4285  0.4025 -0.1340
 2715SOL    HW1 8737   4.111   3.661   2.484  2.2338 -0.2347 -1.3633
 2715SOL    HW2 8738   4.163   3.797   2.526  1.2818 -0.0143 -0.8640
 2716SOL     OW 8739   4.687   3.660   0.885  0.3412  0.3703  0.0781
 2716SOL    HW1 8740   4.666   3.751   0.865  1.0756  0.8324  1.2624
 2716SOL    HW2 8741   4.683   3.655   0.981 -0.3772 -1.0231 -0.0060
 2717SOL     OW 8742   5.113   3.187   0.850  0.1120 -0.1428 -0.4488
 2717SOL    HW1 8743   5.148   3.098   0.842 -1.5437 -0.9086  0.4097
 2717SOL    HW2 8744   5.191   3.242   0.859  1.1480 -1.6030 -0.0504
 2718SOL     OW 8745   4.355   2.638   2.837  0.6094  0.5456  0.1799
 2718SOL    HW1 8746   4.432   2.692   2.852  1.4418 -0.4834 -0.2315
 2718SOL    HW2 8747   4.386   2.569   2.778  0.4827 -2.2068  3.0435
 2719SOL     OW 8748   5.741   3.671   0.933 -0.0198 -0.4499 -0.3820
 2719SOL    HW1 8749   5.663   3.644   0.981  0.0888 -0.5209 -0.2446
 2719SOL    HW2 8750   5.762   3.758   0.968 -0.7604  0.1189 -1.2954
 2720SOL     OW 8751   4.713   1.905   2.718 -0.2802  0.1770 -0.7352
 2720SOL    HW1 8752   4.734   1.822   2.760 -2.1749  0.0959  0.1247
 2720SOL    HW2 8753   4.786   1.920   2.657  0.6390 -1.5491 -0.1195
 2721SOL     OW 8754   4.374   4.433   3.435 -0.1602 -0.3075  0.1455
 2721SOL    HW1 8755   4.427   4.513   3.442  0.8092 -0.9144  0.0052
 2721SOL    HW2 8756   4.303   4.445   3.497  0.1671  0.5201  0.3742
 2722SOL     OW 8757   3.939   2.703   2.586 -0.0725 -0.2561  0.0259
 2722SOL    HW1 8758   3.952   2.662   2.672  1.5442 -0.1039 -0.1197
 2722SOL    HW2 8759   3.976   2.640   2.524 -0.2072  0.1349 -0.4555
 2723SOL     OW 8760   2.984   3.321   0.890 -0.6076  0.6412  0.2855
 2723SOL    HW1 8761   2.959   3.394   0.834  0.1153  0.0173 -0.8752
 2723SOL    HW2 8762   3.065   3.350   0.933 -1.0210  1.0183  0.8155
 2724SOL     OW 8763   3.144   4.386   3.120 -0.3833 -0.9452  0.2385
 2724SOL    HW1 8764   3.091   4.306   3.122 -0.3320 -1.0016 -0.4882
 2724SOL    HW2 8765   3.215   4.366   3.060  0.3852 -0.8122  1.0848
 2725SOL     OW 8766   5.070   0.746   1.036 -0.5798 -0.4359  0.3487
 2725SOL    HW1 8767   5.134   0.678   1.018  0.0244 -0.4302  2.2501
 2725SOL    HW2 8768   5.102   0.822   0.988  0.3735 -0.6825  0.5775
 2726SOL     OW 8769   5.794   3.956   3.333 -0.1034 -0.1077  0.0647
 2726SOL    HW1 8770   5.849   4.028   3.363  2.0045 -1.8754  0.7518
 2726SOL    HW2 8771   5.752   3.923   3.413  1.2178 -1.3755  0.2916
 2727SOL     OW 8772   4.428   2.995   2.661  0.4608  0.2834 -0.7117
 2727SOL    HW1 8773   4.446   3.089   2.656  0.5415  0.2934 -0.2683
 2727SOL    HW2 8774   4.444   2.963   2.572 -0.1628  0.7901 -1.0098
 2728SOL     OW 8775   3.753   1.639   2.594 -0.4505  0.1933 -0.2543
 2728SOL    HW1 8776   3.697   1.564   2.577  1.2161 -1.2912  0.5670
 2728SOL    HW2 8777   3.785   1.665   2.507 -0.0478 -0.8404 -0.4192
 2729SOL     OW 8778   6.378   1.938   2.036  0.0411 -0.1988 -0.0892
 2729SOL    HW1 8779   6.379   1.946   2.131  1.5305  0.6663 -0.1532
 2729SOL    HW2 8780   6.330   1.857   2.020 -1.6532  0.4606  1.3142
 2730SOL     OW 8781   6.399   2.361   0.319  0.4589  0.5577  0.1459
 2730SOL    HW1 8782   6.422   2.335   0.408 -0.3083  1.0262  0.4985
 2730SOL    HW2 8783   6.412   2.283   0.267 -0.8654 -0.2721  1.0034
 2731SOL     OW 8784   4.758   2.306   1.759 -0.1548  0.5281 -0.7230
 2731SOL    HW1 8785   4.849   2.297   1.729 -0.0280  1.3238 -0.5805
 2731SOL    HW2 8786   4.766   2.338   1.849 -0.5977  2.2614 -1.2805
 2732SOL     OW 8787   4.673   0.757   3.534 -0.4110  0.0978  0.5904
 2732SOL    HW1 8788   4.612   0.770   3.607  0.5204 -0.8227  1.5717
 2732SOL    HW2 8789   4.705   0.844   3.513  1.0757  0.1879  2.8945
 2733SOL     OW 8790   5.459   3.934   1.345  0.2358 -0.5033 -0.6087
 2733SOL    HW1 8791   5.456   3.955   1.439  0.5145  1.6729 -1.0352
 2733SOL    HW2 8792   5.369   3.909   1.323 -0.8450  2.7894 -0.4879
 2734SOL     OW 8793   3.669   2.399   0.882  0.1025 -1.2152  0.0305
 2734SOL    HW1 8794   3.637   2.489   0.888  2.3966 -0.3227  0.0841
 2734SOL    HW2 8795   3.598   2.346   0.917 -1.0659  0.6375  0.6204
 2735SOL     OW 8796   5.522   5.286   1.732  0.2836 -0.6245 -0.2949
 2735SOL    HW1 8797   5.482   5.303   1.817  2.3228 -2.5678  1.1867
 2735SOL    HW2 8798   5.523   5.371   1.689  0.3944  0.7465  2.1933
 2736SOL     OW 8799   7.139   2.577   2.939 -0.2665  0.0544  0.1814
 2736SOL    HW1 8800   7.090   2.582   3.022  0.0164 -0.1150  0.3563
 2736SOL    HW2 8801   7.212   2.519   2.957  0.1244  0.4809 -0.0233
 2737SOL     OW 8802   3.981   1.363   2.462 -0.2619 -0.1161  0.3257
 2737SOL    HW1 8803   4.004   1.421   2.535 -0.1938  0.6629 -0.2931
 2737SOL    HW2 8804   3.943   1.286   2.503 -1.1683  0.7350  1.1411
 2738SOL     OW 8805   4.682   3.444   3.302  0.0950  0.0814 -0.6831
 2738SOL    HW1 8806   4.777   3.440   3.304  0.0560 -1.2807  1.3084
 2738SOL    HW2 8807   4.659   3.519   3.357  0.0037  0.5497 -1.3480
 2739SOL     OW 8808   4.922   0.200   2.883 -0.7006 -0.7441  0.2664
 2739SOL    HW1 8809   5.004   0.155   2.901 -0.6338 -1.1846 -1.0325
 2739SOL    HW2 8810   4.939   0.250   2.803 -1.3235  0.1718  0.6918
 2740SOL     OW 8811   4.883   3.228   0.140  0.1223  0.0764  0.6801
 2740SOL    HW1 8812   4.831   3.149   0.124 -0.2965  0.5405 -0.3367
 2740SOL    HW2 8813   4.968   3.209   0.099 -0.2561  0.4592 -0.3117
 2741SOL     OW 8814   3.788   2.947   1.558 -0.4692  0.1943 -0.1703
 2741SOL    HW1 8815   3.847   2.919   1.628  0.3164  0.7792 -0.5799
 2741SOL    HW2 8816   3.779   2.870   1.502  1.1909  0.5210 -0.9560
 2742SOL     OW 8817   4.855   2.100   2.870  0.2045 -0.0647  0.4555
 2742SOL    HW1 8818   4.766   2.070   2.848 -0.4208  2.2062 -0.4217
 2742SOL    HW2 8819   4.910   2.063   2.802 -0.1195 -1.1584  0.7693
 2743SOL     OW 8820   5.397   2.720   2.218  0.1932 -0.5246  0.0823
 2743SOL    HW1 8821   5.355   2.708   2.133 -1.1752 -1.3358  0.8354
 2743SOL    HW2 8822   5.438   2.636   2.238 -2.0782 -1.3752  1.5310
 2744SOL     OW 8823   3.990   3.547   2.720 -0.0578 -0.5520 -0.1057
 2744SOL    HW1 8824   3.947   3.493   2.654  0.1101 -1.1226  0.2414
 2744SOL    HW2 8825   4.062   3.590   2.673 -0.3002 -0.4964 -0.4245
 2745SOL     OW 8826   4.649   1.089   2.895  0.1289  0.1128 -0.6337
 2745SOL    HW1 8827   4.678   1.074   2.985 -0.4505 -0.7193 -0.5794
 2745SOL    HW2 8828   4.566   1.135   2.903 -0.6559 -1.2302 -0.6891
 2746SOL     OW 8829   4.702   0.700   2.584  0.3467  0.2762 -0.0515
 2746SOL    HW1 8830   4.709   0.604   2.582 -0.1367  0.1990  1.3144
 2746SOL    HW2 8831   4.631   0.718   2.645  1.5310  1.5385  1.0323
 2747SOL     OW 8832   2.924   1.566   0.194 -0.2132 -0.1086  0.0277
 2747SOL    HW1 8833   3.018   1.585   0.200 -0.3778  0.8205 -0.0757
 2747SOL    HW2 8834   2.903   1.518   0.274  0.3231 -0.2021  0.1143
 2748SOL     OW 8835   3.537   2.033   0.265  0.5276  0.1097  0.2952
 2748SOL    HW1 8836   3.600   2.101   0.241  1.1015 -1.0107 -1.5632
 2748SOL    HW2 8837   3.576   1.988   0.340  0.7962  0.9204  0.6459
 2749SOL     OW 8838   7.106   2.877   0.036  0.5016  0.1712  0.2886
 2749SOL    HW1 8839   7.155   2.886   0.118  0.9660  1.1695 -0.0815
 2749SOL    HW2 8840   7.112   2.964  -0.005 -3.3782  1.1097  1.2413
 2750SOL     OW 8841   5.064   1.611   2.399 -0.1719 -0.1237  0.4223
 2750SOL    HW1 8842   4.986   1.594   2.452 -1.0282  0.3654 -0.6237
 2750SOL    HW2 8843   5.057   1.548   2.327  0.7625 -0.5174  0.6673
 2751SOL     OW 8844   4.869   3.980   0.244  0.0800  0.2446 -0.5756
 2751SOL    HW1 8845   4.856   4.057   0.188 -0.4553  2.2198  2.0255
 2751SOL    HW2 8846   4.944   3.935   0.207 -0.5735  1.1032 -3.1397
 2752SOL     OW 8847   3.459   3.366   0.319 -0.5139 -0.4779  0.1298
 2752SOL    HW1 8848   3.492   3.315   0.245  1.5161 -1.3933  1.5607
 2752SOL    HW2 8849   3.368   3.384   0.297 -0.2229 -1.4338 -2.1785
 2753SOL     OW 8850   5.357   3.815   1.992 -0.3663 -0.0990  0.2584
 2753SOL    HW1 8851   5.266   3.838   1.978  0.2978  2.4513 -0.2913
 2753SOL    HW2 8852   5.354   3.738   2.050 -2.8190  0.7008  1.3001
 2754SOL     OW 8853   4.336   3.561   3.398 -0.7814  0.4844 -0.5841
 2754SOL    HW1 8854   4.327   3.555   3.303  0.2163  1.2344 -0.7483
 2754SOL    HW2 8855   4.363   3.651   3.414  0.8233 -0.0936  0.2377
 2755SOL     OW 8856   3.494   1.427   0.103 -0.0710 -0.2629  0.2387
 2755SOL    HW1 8857   3.578   1.388   0.080 -1.2598 -2.9474  0.1030
 2755SOL    HW2 8858   3.470   1.480   0.027  0.6869 -0.8878 -0.4464
 2756SOL     OW 8859   4.673   0.802   1.074  0.1382 -0.0966 -0.1471
 2756SOL    HW1 8860   4.666   0.822   1.168  0.0228  0.0946 -0.1961
 2756SOL    HW2 8861   4.598   0.846   1.035 -0.5714 -1.2578 -0.1576
 2757SOL     OW 8862   5.941   2.410   1.827  0.2661  0.0189  0.1171
 2757SOL    HW1 8863   6.007   2.381   1.890 -0.9665 -0.0789  1.4070
 2757SOL    HW2 8864   5.899   2.485   1.870 -0.7016 -0.1395 -0.5356
 2758SOL     OW 8865   5.527   4.050   0.810  0.0012 -0.0746  0.1250
 2758SOL    HW1 8866   5.567   3.995   0.744  0.8604  1.5382 -0.7689
 2758SOL    HW2 8867   5.495   3.989   0.876 -1.7748 -1.8318 -2.1931
 2759SOL     OW 8868   5.301   1.662   0.744 -0.5464 -0.7526  0.3173
 2759SOL    HW1 8869   5.326   1.744   0.787 -1.9607 -1.5003  2.7910
 2759SOL    HW2 8870   5.237   1.688   0.678  2.0644  0.4945 -1.9301
 2760SOL     OW 8871   5.423   4.590   0.999  0.2270  0.1670  0.3723
 2760SOL    HW1 8872   5.405   4.555   1.087  0.3641  1.1296  0.7937
 2760SOL    HW2 8873   5.514   4.568   0.983 -0.3352 -1.7698 -0.3734
 2761SOL     OW 8874   4.007   1.878   0.394 -0.1861 -0.3172 -0.2814
 2761SOL    HW1 8875   3.957   1.942   0.344 -0.0693  0.3052  0.3802
 2761SOL    HW2 8876   3.941   1.818   0.430 -0.4038  0.1219  0.0568
 2762SOL     OW 8877   6.032   1.615   0.322 -0.1557  0.5336  0.2020
 2762SOL    HW1 8878   6.025   1.606   0.227  1.1909 -2.0492  0.2768
 2762SOL    HW2 8879   5.957   1.568   0.356  0.9571 -1.1542  0.4224
 2763SOL     OW 8880   6.179   3.787   1.253  0.1657  0.5867  0.7712
 2763SOL    HW1 8881   6.164   3.850   1.183 -0.1869 -0.8263 -0.4549
 2763SOL    HW2 8882   6.262   3.816   1.293  1.9346 -0.1798 -2.0549
 2764SOL     OW 8883   4.324   3.733   0.855  0.3765 -0.1602  0.1535
 2764SOL    HW1 8884   4.296   3.653   0.899 -1.0811  0.8904  1.2344
 2764SOL    HW2 8885   4.244   3.770   0.818  1.0704  0.6738 -0.5605
 2765SOL     OW 8886   2.913   4.441   1.747 -0.2840  0.1466 -0.6146
 2765SOL    HW1 8887   2.884   4.522   1.704 -0.7362  0.2508 -0.1291
 2765SOL    HW2 8888   2.850   4.375   1.719 -1.7529  0.6177  1.3477
 2766SOL     OW 8889   5.243   2.894   0.857  0.0829 -0.3439  0.0909
 2766SOL    HW1 8890   5.157   2.851   0.852 -0.7393  1.1306  0.9440
 2766SOL    HW2 8891   5.300   2.829   0.898 -1.2300 -0.4822  1.7781
 2767SOL     OW 8892   2.760   4.086   0.068 -0.1248 -0.3472 -0.3636
 2767SOL    HW1 8893   2.713   4.155   0.021 -1.0821 -0.2573  0.6570
 2767SOL    HW2 8894   2.717   4.083   0.154  1.6990 -0.3474  0.5876
 2768SOL     OW 8895   5.416   2.099   0.874 -0.2359 -0.0737 -0.2217
 2768SOL    HW1 8896   5.391   2.185   0.907  0.1394  0.1061 -0.4011
 2768SOL    HW2 8897   5.339   2.044   0.888 -0.6466  0.4115 -0.5431
 2769SOL     OW 8898   4.617   2.784   2.239  0.1113 -0.4354 -0.0494
 2769SOL    HW1 8899   4.651   2.804   2.152  0.2672  1.1568  0.3434
 2769SOL    HW2 8900   4.524   2.805   2.233 -0.1576 -1.6123 -0.1914
 2770SOL     OW 8901   5.232   2.417   0.340  0.4186  0.3553  0.0217
 2770SOL    HW1 8902   5.303   2.368   0.300 -1.1867 -0.7378 -1.6731
 2770SOL    HW2 8903   5.153   2.388   0.292 -0.7923  3.6729 -0.2447
 2771SOL     OW 8904   6.860   2.831   2.069  0.3268 -0.4112 -0.2508
 2771SOL    HW1 8905   6.873   2.782   1.988 -1.0407 -1.6577  0.2316
 2771SOL    HW2 8906   6.776   2.876   2.056  1.1063  1.0679 -0.3128
 2772SOL     OW 8907   3.158   2.491   0.820 -0.0110  0.0378  0.1467
 2772SOL    HW1 8908   3.098   2.417   0.825 -1.3245  0.7831 -2.7041
 2772SOL    HW2 8909   3.102   2.569   0.827  0.6625  0.7405 -1.5929
 2773SOL     OW 8910   4.382   1.327   0.275  0.3189 -0.6659 -0.2177
 2773SOL    HW1 8911   4.443   1.393   0.306  0.7001 -1.5643  1.0283
 2773SOL    HW2 8912   4.413   1.303   0.187 -0.6575  1.7821 -1.3175
 2774SOL     OW 8913   5.178   1.833   3.431 -0.3900  0.1558  0.0012
 2774SOL    HW1 8914   5.206   1.782   3.355 -0.3201  0.0631  0.0900
 2774SOL    HW2 8915   5.104   1.784   3.467 -0.3083  0.1037  0.0997
 2775SOL     OW 8916   3.285   3.758   2.974  0.3240  0.5254 -0.2904
 2775SOL    HW1 8917   3.303   3.824   3.042  0.3865  0.9336 -0.6994
 2775SOL    HW2 8918   3.224   3.802   2.914 -1.1934 -0.4372  0.4652
 2776SOL     OW 8919   5.535   2.861   3.278  0.0996  0.1546 -0.2101
 2776SOL    HW1 8920   5.476   2.794   3.247  2.2645 -1.8721 -0.2086
 2776SOL    HW2 8921   5.534   2.852   3.374 -0.9779  1.4318 -0.0626
 2777SOL     OW 8922   4.978   2.592   1.904  0.0630 -0.1508  0.6284
 2777SOL    HW1 8923   4.998   2.534   1.830 -1.3148  1.1776 -0.8507
 2777SOL    HW2 8924   5.045   2.660   1.901  0.1538 -0.2337  0.7644
 2778SOL     OW 8925   5.258   3.132   3.087  0.5474 -0.4335  0.4992
 2778SOL    HW1 8926   5.203   3.110   3.012  2.3356 -1.1793 -0.6734
 2778SOL    HW2 8927   5.220   3.084   3.160 -1.7809  1.0232  0.3544
 2779SOL     OW 8928   6.660   2.926   2.540  0.6097 -0.7127  0.4425
 2779SOL    HW1 8929   6.719   2.871   2.592  0.8350 -0.4397  0.4834
 2779SOL    HW2 8930   6.712   2.949   2.463 -0.1688 -2.1837 -0.5637
 2780SOL     OW 8931   5.086   2.331   3.433 -0.4656 -0.2953 -0.6689
 2780SOL    HW1 8932   5.054   2.246   3.463  1.6898 -1.5980 -1.7749
 2780SOL    HW2 8933   5.124   2.372   3.510 -2.1719  0.0347  0.0338
 2781SOL     OW 8934   3.691   3.035   2.943 -0.2146 -0.1863 -0.0949
 2781SOL    HW1 8935   3.649   2.959   2.903  0.0308 -0.2207 -0.2878
 2781SOL    HW2 8936   3.768   2.999   2.988 -0.0803 -0.0479 -0.2147
 2782SOL     OW 8937   5.186   2.118   2.119 -0.2385 -0.0722 -0.1242
 2782SOL    HW1 8938   5.146   2.119   2.032  2.9498 -0.4204 -1.7436
 2782SOL    HW2 8939   5.189   2.026   2.144 -1.6267  0.0671  0.6643
 2783SOL     OW 8940   3.731   4.025   2.507  0.2317 -0.6156  0.0257
 2783SOL    HW1 8941   3.795   3.977   2.560  2.1683  0.9867 -0.7644
 2783SOL    HW2 8942   3.721   4.109   2.551  0.1504 -0.1231 -0.9046
 2784SOL     OW 8943   4.428   0.458   1.539 -0.4996 -0.3009  0.2034
 2784SOL    HW1 8944   4.412   0.543   1.499 -1.1200  0.4676  1.9592
 2784SOL    HW2 8945   4.384   0.395   1.482  2.8364  0.0245 -3.0727
 2785SOL     OW 8946   5.441   1.367   2.945  0.9329  1.0343 -0.2303
 2785SOL    HW1 8947   5.481   1.454   2.937  1.6474  1.0134  2.3452
 2785SOL    HW2 8948   5.387   1.372   3.023 -1.9997  0.1721 -2.0463
 2786SOL     OW 8949   4.738   2.497   2.201 -0.4742  0.1704 -0.4500
 2786SOL    HW1 8950   4.699   2.584   2.214 -0.6174  0.3613 -1.9443
 2786SOL    HW2 8951   4.831   2.514   2.186 -0.3845  0.0047 -0.0838
 2787SOL     OW 8952   4.942   3.688   0.750 -0.0147  0.1657 -0.1529
 2787SOL    HW1 8953   4.860   3.707   0.796 -0.5401 -0.5132 -0.7684
 2787SOL    HW2 8954   4.959   3.595   0.769  0.6784  0.3317  0.0631
 2788SOL     OW 8955   4.317   2.398   3.223  0.4656  0.3446  0.3350
 2788SOL    HW1 8956   4.394   2.352   3.191  0.6221  1.2576 -0.6379
 2788SOL    HW2 8957   4.312   2.375   3.316  3.2019  1.9785  0.9962
 2789SOL     OW 8958   3.470   3.754   0.446 -0.3337 -0.0262  0.3242
 2789SOL    HW1 8959   3.425   3.743   0.363 -2.6112  0.5666  1.3990
 2789SOL    HW2 8960   3.529   3.828   0.432 -2.8391  2.0795 -0.0334
 2790SOL     OW 8961   4.781   0.629   3.073 -0.2653  0.3844 -0.2517
 2790SOL    HW1 8962   4.861   0.635   3.126 -1.5476  2.7783  1.6508
 2790SOL    HW2 8963   4.730   0.559   3.115 -0.4098  0.9136  0.4917
 2791SOL     OW 8964   5.910   1.713   3.434  0.5461 -0.3773 -0.0855
 2791SOL    HW1 8965   5.835   1.678   3.387  0.6412  0.2050 -0.6974
 2791SOL    HW2 8966   5.941   1.640   3.488 -1.1022 -0.3219  1.0213
 2792SOL     OW 8967   4.964   2.330   2.957 -0.0617  0.5350 -0.2983
 2792SOL    HW1 8968   4.956   2.238   2.931 -1.1701  0.2746  0.8722
 2792SOL    HW2 8969   4.876   2.355   2.984  0.4726  1.5901  0.5345
 2793SOL     OW 8970   5.759   3.905   2.832 -0.4822  0.0375  0.3664
 2793SOL    HW1 8971   5.808   3.971   2.784 -1.2589  0.3901  0.0380
 2793SOL    HW2 8972   5.783   3.917   2.923 -0.9147  1.0463  0.3567
 2794SOL     OW 8973   6.890   2.706   1.835 -0.0324 -0.6005 -0.5350
 2794SOL    HW1 8974   6.813   2.703   1.778 -0.2613  0.1538 -0.2770
 2794SOL    HW2 8975   6.915   2.614   1.846 -1.4115 -0.9280  0.0601
 2795SOL     OW 8976   4.314   2.496   1.600  0.8507 -0.0426  0.0393
 2795SOL    HW1 8977   4.404   2.478   1.574  0.2362 -0.8262 -1.7017
 2795SOL    HW2 8978   4.264   2.493   1.518 -0.7608  0.4147  0.9517
 2796SOL     OW 8979   3.024   3.106   0.555  0.1248  0.4415  0.1930
 2796SOL    HW1 8980   3.043   3.085   0.463  0.0130  0.8109  0.0843
 2796SOL    HW2 8981   2.936   3.143   0.553 -0.9265 -1.8281  0.7791
 2797SOL     OW 8982   3.968   4.252   0.853  0.2590  0.1311  0.7320
 2797SOL    HW1 8983   3.924   4.241   0.769  0.8500 -1.6358  0.6242
 2797SOL    HW2 8984   3.918   4.321   0.897 -0.8727  0.1517 -0.5153
 2798SOL     OW 8985   4.125   3.971   2.244 -0.1814  0.3713 -0.0631
 2798SOL    HW1 8986   4.182   3.981   2.320  0.9100  0.9609 -0.9253
 2798SOL    HW2 8987   4.105   3.877   2.241 -0.2786  0.3477  0.9616
 2799SOL     OW 8988   5.395   0.881   2.113 -0.1566 -0.1931  0.2392
 2799SOL    HW1 8989   5.378   0.900   2.206 -0.0267  1.1921  0.0044
 2799SOL    HW2 8990   5.308   0.871   2.074 -0.2003 -2.3070  0.7691
 2800SOL     OW 8991   4.652   0.606   0.781  0.2767 -0.0621 -0.7728
 2800SOL    HW1 8992   4.651   0.604   0.876  2.9163 -1.9659 -0.6715
 2800SOL    HW2 8993   4.611   0.523   0.754  2.4750 -1.1245 -1.0890
 2801SOL     OW 8994   4.088   3.425   3.426  0.5018 -0.2813 -0.5046
 2801SOL    HW1 8995   4.162   3.485   3.423 -0.5333  1.0841 -0.1623
 2801SOL    HW2 8996   4.094   3.374   3.345  0.2378  1.8094 -1.9256
 2802SOL     OW 8997   6.344   3.015   0.202 -0.3844 -0.7597 -0.2499
 2802SOL    HW1 8998   6.257   2.983   0.176 -0.7840  0.4255 -0.4771
 2802SOL    HW2 8999   6.363   3.084   0.138  0.5934 -0.8090 -0.0178
 2803SOL     OW 9000   5.948   3.723   2.574  0.3946  0.0155  0.1018
 2803SOL    HW1 9001   6.001   3.654   2.536 -0.0409 -0.0431 -0.4013
 2803SOL    HW2 9002   5.858   3.699   2.554  0.1083 -0.2552  1.5565
 2804SOL     OW 9003   3.653   2.784   2.847  0.2238  0.4111 -0.5085
 2804SOL    HW1 9004   3.558   2.790   2.835 -0.1715  0.6513  2.0266
 2804SOL    HW2 9005   3.685   2.738   2.770 -1.6374  2.2621 -2.5193
 2805SOL     OW 9006   6.559   1.848   3.151 -0.4406 -0.2867  0.0402
 2805SOL    HW1 9007   6.606   1.765   3.165  0.1447  0.2426  1.3579
 2805SOL    HW2 9008   6.473   1.821   3.117 -0.6723 -1.5225  1.5062
 2806SOL     OW 9009   4.236   3.153   1.747 -0.3904  0.2956 -0.4980
 2806SOL    HW1 9010   4.149   3.174   1.714  0.0888  0.7707 -1.5368
 2806SOL    HW2 9011   4.295   3.209   1.695  0.7224 -1.7488 -1.5488
 2807SOL     OW 9012   5.431   0.095   2.781 -0.1375 -0.2786  0.0355
 2807SOL    HW1 9013   5.503   0.049   2.738  1.2867  0.9050  1.0865
 2807SOL    HW2 9014   5.410   0.167   2.722 -1.5199 -1.4658 -0.9952
 2808SOL     OW 9015   6.849   3.319   2.744 -0.2493 -0.2036  0.0930
 2808SOL    HW1 9016   6.934   3.285   2.717 -1.0100 -1.2825 -1.0406
 2808SOL    HW2 9017   6.805   3.243   2.784 -0.7567  0.2972  0.5050
 2809SOL     OW 9018   5.472   2.611   1.586  0.2314  0.1627 -0.1640
 2809SOL    HW1 9019   5.559   2.643   1.561  0.0782  2.2396  1.6621
 2809SOL    HW2 9020   5.485   2.518   1.603  2.0205  0.3499 -0.2397
 2810SOL     OW 9021   5.687   1.828   0.307  0.1068  0.2229  0.1806
 2810SOL    HW1 9022   5.763   1.883   0.290  0.8744 -0.6766  0.6326
 2810SOL    HW2 9023   5.636   1.877   0.372  0.7126  0.4575  0.4855
 2811SOL     OW 9024   3.262   1.725   2.520  0.1637  0.0651 -0.6553
 2811SOL    HW1 9025   3.277   1.768   2.604 -1.2463 -0.6717  0.0102
 2811SOL    HW2 9026   3.166   1.718   2.513  0.3009 -2.1807 -1.0990
 2812SOL     OW 9027   3.211   1.914   3.298  0.1853 -0.4183 -0.3769
 2812SOL    HW1 9028   3.225   1.820   3.289  0.3055 -0.5388  0.9161
 2812SOL    HW2 9029   3.280   1.944   3.356  0.4150  0.5633 -1.1251
 2813SOL     OW 9030   4.332   1.484   1.949  0.1888 -0.5567  0.1169
 2813SOL    HW1 9031   4.405   1.546   1.950 -0.8237  0.7418  2.8277
 2813SOL    HW2 9032   4.349   1.424   2.022 -1.2726 -0.4063  0.6127
 2814SOL     OW 9033   5.881   3.537   1.154  0.4703 -0.2272  0.4491
 2814SOL    HW1 9034   5.839   3.593   1.088 -1.9381 -0.4126  1.7092
 2814SOL    HW2 9035   5.921   3.599   1.215 -1.2454  0.1772  1.2414
 2815SOL     OW 9036   6.119   3.944   0.330  0.2933 -0.2731 -0.0529
 2815SOL    HW1 9037   6.182   4.013   0.310 -0.1864  0.0553 -0.4537
 2815SOL    HW2 9038   6.150   3.868   0.280  0.1362  0.0104 -0.5903
 2816SOL     OW 9039   3.115   1.935   0.057  0.3305  0.7677 -0.4083
 2816SOL    HW1 9040   3.142   1.952  -0.033 -1.6711  0.7885 -1.0555
 2816SOL    HW2 9041   3.058   2.009   0.079 -0.9778 -0.3313  0.0610
 2817SOL     OW 9042   5.993   4.584   3.321  0.3697 -0.4063 -0.2888
 2817SOL    HW1 9043   6.032   4.516   3.266  0.3469  1.1894 -2.4151
 2817SOL    HW2 9044   5.900   4.584   3.297  0.5812  1.1324 -1.2371
 2818SOL     OW 9045   4.164   3.061   2.943 -0.5915  0.0216  0.2240
 2818SOL    HW1 9046   4.228   2.991   2.958 -0.5666 -0.5043 -1.9210
 2818SOL    HW2 9047   4.081   3.015   2.930 -0.1956  0.0440 -3.4692
 2819SOL     OW 9048   5.368   2.381   0.904 -0.2010  0.1989 -0.5717
 2819SOL    HW1 9049   5.329   2.416   0.824  1.6428 -0.3465 -1.7510
 2819SOL    HW2 9050   5.421   2.453   0.938 -0.4270  0.1979 -0.2136
 2820SOL     OW 9051   4.717   1.875   1.860  0.1018 -0.0848 -0.0457
 2820SOL    HW1 9052   4.791   1.868   1.800 -0.3864 -1.0292 -0.5506
 2820SOL    HW2 9053   4.672   1.955   1.834 -0.8516 -1.1443 -1.8323
 2821SOL     OW 9054   6.198   4.164   1.384  0.2895 -0.1130  0.1649
 2821SOL    HW1 9055   6.241   4.166   1.469 -0.5498 -2.6771  0.7490
 2821SOL    HW2 9056   6.269   4.175   1.320  1.0435  0.9429  1.1569
 2822SOL     OW 9057   2.972   0.213   2.709  0.3379  0.3583  0.0906
 2822SOL    HW1 9058   2.928   0.130   2.690  0.2648  0.2358  0.7860
 2822SOL    HW2 9059   2.913   0.260   2.768  1.0056  0.2943  0.8359
 2823SOL     OW 9060   6.335   3.237   0.678  0.3185  0.3309  0.0715
 2823SOL    HW1 9061   6.335   3.322   0.636  0.2675  0.2530 -0.0862
 2823SOL    HW2 9062   6.357   3.175   0.608 -1.0146  0.0553 -0.1284
 2824SOL     OW 9063   4.003   2.214   3.020  0.2483  0.1432 -0.5332
 2824SOL    HW1 9064   4.002   2.255   2.934  0.2279 -0.9698 -1.0862
 2824SOL    HW2 9065   3.959   2.276   3.078  1.7940  1.6866 -0.9462
 2825SOL     OW 9066   5.603   1.610   1.686  0.5576  0.1345  0.5167
 2825SOL    HW1 9067   5.619   1.563   1.767  2.0887  0.1773  0.2770
 2825SOL    HW2 9068   5.681   1.666   1.675 -0.3024  1.2408 -0.2111
 2826SOL     OW 9069   4.926   2.219   0.493  0.0806 -0.1012  0.5119
 2826SOL    HW1 9070   4.938   2.269   0.413  0.3015  0.2393  0.7552
 2826SOL    HW2 9071   4.838   2.240   0.523 -0.6850 -1.5844 -0.5718
 2827SOL     OW 9072   3.189   2.380   2.761  0.0522  0.4379 -0.9125
 2827SOL    HW1 9073   3.140   2.331   2.827  1.6799 -0.2945 -0.1997
 2827SOL    HW2 9074   3.194   2.469   2.795  0.8802  0.0670 -0.0147
 2828SOL     OW 9075   3.776   2.442   2.894 -0.2051 -0.0663  0.0488
 2828SOL    HW1 9076   3.739   2.355   2.913  0.1320 -0.6245 -1.7027
 2828SOL    HW2 9077   3.707   2.487   2.845  0.1831  0.1218 -0.3212
 2829SOL     OW 9078   4.564   1.828   2.254  0.3144  0.6806 -0.1485
 2829SOL    HW1 9079   4.577   1.762   2.185 -2.2392 -0.8058  0.6511
 2829SOL    HW2 9080   4.539   1.777   2.331  1.1286  2.4436  1.3343
 2830SOL     OW 9081   3.945   2.538   0.101 -0.3634 -0.0656 -0.0072
 2830SOL    HW1 9082   3.979   2.483   0.030 -0.8885  0.0684 -0.3628
 2830SOL    HW2 9083   3.967   2.627   0.074 -0.3152 -0.0328  0.1378
 2831SOL     OW 9084   4.154   1.861   3.179  0.4652 -0.2541  0.6573
 2831SOL    HW1 9085   4.228   1.843   3.120 -0.2298 -0.2271 -0.2428
 2831SOL    HW2 9086   4.195   1.890   3.260  1.4568  1.1408 -0.2827
 2832SOL     OW 9087   5.184   1.164   2.304  0.0539  0.3000  0.4862
 2832SOL    HW1 9088   5.174   1.229   2.374  0.5058  0.5637  0.3107
 2832SOL    HW2 9089   5.256   1.108   2.333  0.4335  0.5803  0.1135
 2833SOL     OW 9090   3.457   1.741   0.061 -0.2566  0.0081 -0.3588
 2833SOL    HW1 9091   3.455   1.826   0.017 -0.1237 -0.2989 -0.9662
 2833SOL    HW2 9092   3.520   1.689   0.010 -0.3488 -0.4595 -0.0041
 2834SOL     OW 9093   5.429   2.073   2.306  0.2247 -0.3286  0.4449
 2834SOL    HW1 9094   5.359   2.115   2.257 -0.2974 -2.1497 -0.4609
 2834SOL    HW2 9095   5.447   2.133   2.378 -1.3908  0.7790 -0.0149
 2835SOL     OW 9096   7.305   4.233   1.231 -0.4161 -0.0945 -0.0592
 2835SOL    HW1 9097   7.330   4.173   1.302 -0.0953 -0.4756 -0.4950
 2835SOL    HW2 9098   7.382   4.236   1.174 -0.6993  0.1671 -0.4262
 2836SOL     OW 9099   5.163   0.906   1.924 -0.2862  0.2694  0.5768
 2836SOL    HW1 9100   5.097   0.873   1.863 -0.9528  1.4860  0.6078
 2836SOL    HW2 9101   5.112   0.941   1.997  0.4400  0.3526  1.0470
 2837SOL     OW 9102   6.293   2.366   3.030  0.1973 -0.0195 -0.4395
 2837SOL    HW1 9103   6.305   2.427   2.957  0.5454  0.7706  0.2554
 2837SOL    HW2 9104   6.212   2.395   3.072  0.4901  0.1266  0.0350
 2838SOL     OW 9105   4.515   4.504   2.225  0.9918  0.1104 -0.5678
 2838SOL    HW1 9106   4.540   4.444   2.295 -0.7081 -0.7586 -0.6597
 2838SOL    HW2 9107   4.422   4.489   2.213  1.2520  0.1209 -3.1371
 2839SOL     OW 9108   4.728   1.591   0.162 -0.3357  0.4159 -0.4083
 2839SOL    HW1 9109   4.772   1.518   0.120 -3.2051 -0.4044 -2.3243
 2839SOL    HW2 9110   4.677   1.632   0.092 -0.3063  3.1257  1.0037
 2840SOL     OW 9111   4.292   0.598   2.714 -0.0444  0.2075 -0.1509
 2840SOL    HW1 9112   4.215   0.552   2.747 -1.2212  0.5635 -2.2203
 2840SOL    HW2 9113   4.318   0.655   2.786  0.0903 -1.9828  1.6481
 2841SOL     OW 9114   6.344   2.479   3.394  0.3563 -0.1926 -0.6739
 2841SOL    HW1 9115   6.295   2.458   3.315  0.7367 -0.4559 -0.8412
 2841SOL    HW2 9116   6.435   2.455   3.373  0.3728 -0.7539  0.0283
 2842SOL     OW 9117   2.555   1.872   0.120 -0.4599  0.5126  0.0557
 2842SOL    HW1 9118   2.581   1.886   0.029 -1.5339  2.4334 -0.0137
 2842SOL    HW2 9119   2.472   1.919   0.129 -1.7552 -1.8561  1.3702
 2843SOL     OW 9120   3.484   1.437   2.757 -0.1349  0.0412 -0.0654
 2843SOL    HW1 9121   3.532   1.500   2.810 -1.2655 -0.7627  2.0875
 2843SOL    HW2 9122   3.538   1.423   2.680  0.8731  2.4414  0.1271
 2844SOL     OW 9123   4.949   1.099   0.849  0.1585 -0.4557  0.3050
 2844SOL    HW1 9124   4.954   1.113   0.755  1.5408  0.0167  0.4171
 2844SOL    HW2 9125   4.857   1.109   0.871  0.0290  1.0647 -0.7708
 2845SOL     OW 9126   5.912   1.408   2.003 -0.3419  0.0824 -0.0566
 2845SOL    HW1 9127   5.859   1.389   1.926  1.2089  0.1850 -1.1878
 2845SOL    HW2 9128   5.943   1.322   2.032  0.4520  0.1751 -0.5913
 2846SOL     OW 9129   3.127   3.937   2.823  0.0372  0.6545 -0.0540
 2846SOL    HW1 9130   3.126   3.994   2.899  1.2848 -1.8352  1.9591
 2846SOL    HW2 9131   3.040   3.948   2.784 -0.9264  1.4637  2.1588
 2847SOL     OW 9132   5.207   1.339   2.784  0.4215 -0.1687 -0.6677
 2847SOL    HW1 9133   5.175   1.429   2.793 -1.4946 -0.9973  3.7654
 2847SOL    HW2 9134   5.289   1.338   2.833 -0.0660 -0.9595  0.1708
 2848SOL     OW 9135   6.115   1.666   2.876 -0.4184 -0.0752  0.6677
 2848SOL    HW1 9136   6.105   1.589   2.820 -0.5253  0.1065  0.4334
 2848SOL    HW2 9137   6.028   1.705   2.880 -0.3622  0.0439  0.7721
 2849SOL     OW 9138   3.626   3.276   3.286 -0.0625 -0.1700  0.0351
 2849SOL    HW1 9139   3.633   3.345   3.352 -0.0974  2.1348 -2.2304
 2849SOL    HW2 9140   3.685   3.304   3.216  0.7287 -3.0251 -0.5702
 2850SOL     OW 9141   5.229   3.769   1.271  0.4288 -0.6569 -0.3665
 2850SOL    HW1 9142   5.158   3.711   1.301 -1.4016  1.0078 -1.2426
 2850SOL    HW2 9143   5.190   3.819   1.200  2.5421  0.3271 -0.9006
 2851SOL     OW 9144   4.306   4.178   1.916  0.0832 -0.3269 -0.0110
 2851SOL    HW1 9145   4.372   4.124   1.961 -0.0559 -0.9890 -0.5911
 2851SOL    HW2 9146   4.357   4.237   1.861  0.3074  1.1566  1.6847
 2852SOL     OW 9147   5.407   0.335   2.675  0.7853  0.1332  0.0887
 2852SOL    HW1 9148   5.325   0.375   2.706 -0.2128  0.6438 -2.9331
 2852SOL    HW2 9149   5.462   0.410   2.650  1.4237 -0.2616  0.2975
 2853SOL     OW 9150   3.048   1.874   3.023  0.1582  0.2294 -0.2067
 2853SOL    HW1 9151   3.030   1.844   3.112 -0.5673  0.2444 -0.3421
 2853SOL    HW2 9152   3.117   1.939   3.033  0.2963  0.0089  0.3112
 2854SOL     OW 9153   4.195   3.463   0.286 -0.2561  0.1890 -0.0626
 2854SOL    HW1 9154   4.252   3.408   0.231  0.8346  2.2205 -1.0592
 2854SOL    HW2 9155   4.114   3.412   0.294  0.9697 -1.9265 -0.2242
 2855SOL     OW 9156   5.171   1.818   2.589  0.2861  0.5507 -0.4079
 2855SOL    HW1 9157   5.149   1.773   2.507  0.1414  1.7862 -1.0675
 2855SOL    HW2 9158   5.259   1.854   2.574 -0.4330  2.2842 -0.7181
 2856SOL     OW 9159   3.969   2.342   2.710  0.4271  0.0321  0.4090
 2856SOL    HW1 9160   3.899   2.373   2.768 -0.1101 -0.6663  0.1461
 2856SOL    HW2 9161   3.936   2.360   2.622  1.1974  0.9960  0.3024
 2857SOL     OW 9162   4.420   1.311   2.536  0.3342 -0.0189 -0.3781
 2857SOL    HW1 9163   4.348   1.291   2.476  0.3120 -2.2464  0.2948
 2857SOL    HW2 9164   4.490   1.252   2.508  1.1352  0.5704  0.3572
 2858SOL     OW 9165   5.331   1.418   0.846  0.0812  0.2878 -0.2000
 2858SOL    HW1 9166   5.312   1.510   0.828  0.8780  0.6483  0.7218
 2858SOL    HW2 9167   5.363   1.417   0.936  0.7266 -0.7973 -0.4248
 2859SOL     OW 9168   5.406   4.571   2.072 -0.4777  0.3056 -0.3187
 2859SOL    HW1 9169   5.349   4.538   2.003 -1.3207  0.0609  0.4878
 2859SOL    HW2 9170   5.454   4.494   2.102  2.0418  0.8399 -2.5305
 2860SOL     OW 9171   6.138   0.051   2.436 -0.3131  0.0772  0.2784
 2860SOL    HW1 9172   6.158   0.052   2.343  0.7659 -0.1082  0.4967
 2860SOL    HW2 9173   6.058   0.103   2.444 -0.9614 -0.6945 -0.8581
 2861SOL     OW 9174   4.837   2.584   1.586 -0.2516  0.1505 -0.4608
 2861SOL    HW1 9175   4.774   2.651   1.611 -0.0907  0.4392 -0.8391
 2861SOL    HW2 9176   4.922   2.617   1.615 -0.0960  0.3713 -1.1549
 2862SOL     OW 9177   2.956   4.134   2.289  0.2459  0.0264  0.2296
 2862SOL    HW1 9178   2.972   4.092   2.205 -1.8392 -1.6705  0.5685
 2862SOL    HW2 9179   2.981   4.067   2.354 -0.5121  0.3444  0.8640
 2863SOL     OW 9180   4.727   2.273   2.041  0.1920  0.1158 -0.4729
 2863SOL    HW1 9181   4.738   2.349   2.098  0.3615 -0.1689 -0.1220
 2863SOL    HW2 9182   4.658   2.222   2.083  2.0426 -1.3871  0.9048
 2864SOL     OW 9183   4.917   2.131   2.484  0.1259  0.5088  0.2078
 2864SOL    HW1 9184   4.947   2.166   2.400 -1.6941 -0.7099 -1.0256
 2864SOL    HW2 9185   4.856   2.197   2.516 -1.0211 -0.0862 -0.6586
 2865SOL     OW 9186   5.489   3.342   0.434  0.2562  0.4871 -0.2493
 2865SOL    HW1 9187   5.485   3.437   0.425 -1.0366  0.4612 -0.1412
 2865SOL    HW2 9188   5.405   3.311   0.398  0.8932 -0.6510 -0.7940
 2866SOL     OW 9189   3.478   2.213   2.441 -0.3965 -0.5457  0.4337
 2866SOL    HW1 9190   3.462   2.268   2.364 -0.4938 -1.8852 -0.5418
 2866SOL    HW2 9191   3.571   2.193   2.438 -0.8677 -3.0503 -1.1382
 2867SOL     OW 9192   4.639   2.968   3.028  0.2029  0.8810  0.0307
 2867SOL    HW1 9193   4.715   2.980   2.972  0.2699 -0.3305 -0.1688
 2867SOL    HW2 9194   4.605   3.056   3.042  0.6478  1.2793 -1.2629
 2868SOL     OW 9195   3.897   1.534   1.656  0.8608 -0.2525  0.0655
 2868SOL    HW1 9196   3.861   1.621   1.640 -1.0567 -1.0849 -0.4483
 2868SOL    HW2 9197   3.820   1.478   1.667  2.0301 -2.0194 -0.3458
 2869SOL     OW 9198   4.220   1.377   3.289  0.3828 -0.6673  0.1942
 2869SOL    HW1 9199   4.285   1.445   3.273 -1.3393  0.6762 -1.7824
 2869SOL    HW2 9200   4.161   1.415   3.354  0.7406 -1.2782  0.8865
 2870SOL     OW 9201   6.061   1.920   0.575 -0.0812  0.0673  0.2854
 2870SOL    HW1 9202   6.072   1.864   0.652  0.5019  0.3744  0.4388
 2870SOL    HW2 9203   6.110   2.000   0.597  0.2907  0.0630 -0.4995
 2871SOL     OW 9204   4.271   3.467   1.903  0.1357 -0.0733  0.0103
 2871SOL    HW1 9205   4.243   3.558   1.897 -1.2158 -0.4786 -0.2596
 2871SOL    HW2 9206   4.325   3.453   1.826  1.4797  0.8488  0.7498
 2872SOL     OW 9207   3.572   2.622   1.752 -0.1247 -0.0443 -0.1837
 2872SOL    HW1 9208   3.557   2.707   1.794 -0.5008 -0.8077  1.2909
 2872SOL    HW2 9209   3.632   2.641   1.680  0.7218  1.3009  0.8291
 2873SOL     OW 9210   2.937   1.033   1.967  0.1774 -0.0078  0.1869
 2873SOL    HW1 9211   2.934   1.127   1.947  0.6987  0.3635  1.7049
 2873SOL    HW2 9212   3.029   1.016   1.985  0.0229 -0.7298  0.3048
 2874SOL     OW 9213   1.433   3.037   2.736  0.1356  0.4655 -0.2956
 2874SOL    HW1 9214   1.468   3.117   2.698 -2.6704  0.8231 -2.4865
 2874SOL    HW2 9215   1.476   2.966   2.689  0.2344  0.7874 -0.6974
 2875SOL     OW 9216   4.138   1.432   2.683  0.3430 -0.6147  0.5058
 2875SOL    HW1 9217   4.137   1.347   2.727 -0.8034 -1.5665 -1.2503
 2875SOL    HW2 9218   4.091   1.491   2.743 -2.7824 -2.2872 -0.0633
 2876SOL     OW 9219   3.486   1.082   2.677  0.0660  0.4279 -0.3870
 2876SOL    HW1 9220   3.560   1.091   2.737 -0.4831 -3.0605  1.0817
 2876SOL    HW2 9221   3.428   1.154   2.700  1.5169  1.3066  0.7227
 2877SOL     OW 9222   6.208   1.065   0.022 -0.3688 -0.1929 -0.2207
 2877SOL    HW1 9223   6.278   1.076  -0.043 -0.1754 -0.6352 -0.0913
 2877SOL    HW2 9224   6.145   1.007  -0.021  0.4720 -1.7132  0.5214
 2878SOL     OW 9225   0.786   1.103   1.970 -0.1276  0.2007  0.1364
 2878SOL    HW1 9226   0.805   1.174   1.908  0.2600  0.0944  0.1270
 2878SOL    HW2 9227   0.692   1.110   1.987 -0.0260  0.9495  0.4230
 2879SOL     OW 9228   5.410   1.687   3.219  0.5315 -0.8208 -0.5541
 2879SOL    HW1 9229   5.483   1.670   3.279  0.7965 -0.3274 -0.7362
 2879SOL    HW2 9230   5.444   1.752   3.158 -0.4875  0.3994  0.1407
 2880SOL     OW 9231   4.185   0.432   3.245  0.0793  0.0900 -0.6974
 2880SOL    HW1 9232   4.140   0.516   3.234 -0.2341 -0.2678 -2.2739
 2880SOL    HW2 9233   4.256   0.452   3.307  0.4782  1.7099 -1.6085
 2881SOL     OW 9234   4.785   3.773   1.546 -0.3559 -0.0278  0.0681
 2881SOL    HW1 9235   4.868   3.810   1.515 -0.3959  2.5549  2.5909
 2881SOL    HW2 9236   4.720   3.839   1.525 -0.7235  0.8129  3.2410
 2882SOL     OW 9237   4.638   4.550   1.802 -0.4333  0.0393  0.0479
 2882SOL    HW1 9238   4.669   4.558   1.712 -1.6673 -0.9701 -0.4936
 2882SOL    HW2 9239   4.708   4.589   1.855 -0.3485  2.0667 -1.4356
 2883SOL     OW 9240   5.274   2.468   2.688  0.4385  0.0040 -0.0950
 2883SOL    HW1 9241   5.196   2.499   2.643 -0.5015  1.6105  2.4407
 2883SOL    HW2 9242   5.343   2.529   2.660 -0.0052  0.6416  0.1591
 2884SOL     OW 9243   4.587   1.485   0.360 -0.5739  0.2288 -0.7160
 2884SOL    HW1 9244   4.606   1.545   0.431 -0.5677  1.0869 -1.4301
 2884SOL    HW2 9245   4.645   1.512   0.289 -0.5240 -0.6635 -1.0335
 2885SOL     OW 9246   6.742   2.415   0.545 -0.1322 -0.3703  0.5071
 2885SOL    HW1 9247   6.660   2.437   0.590 -0.3669  0.1217 -0.1372
 2885SOL    HW2 9248   6.726   2.438   0.453  1.0518  0.6531  0.5306
 2886SOL     OW 9249   3.603   1.882   2.554  0.4872  0.9606 -0.3738
 2886SOL    HW1 9250   3.632   1.886   2.463  1.1463  1.5932 -0.1480
 2886SOL    HW2 9251   3.652   1.809   2.592  0.7969  1.1849 -0.3360
 2887SOL     OW 9252   2.301   3.480   3.008 -0.0938  0.2429 -0.7845
 2887SOL    HW1 9253   2.288   3.573   2.989  0.0182  0.0918 -1.6846
 2887SOL    HW2 9254   2.243   3.436   2.946 -0.4143 -0.2813 -0.1154
 2888SOL     OW 9255   2.936   3.358   3.205  0.2177 -0.9089  0.0144
 2888SOL    HW1 9256   3.009   3.416   3.184 -0.3235 -0.6015 -1.0830
 2888SOL    HW2 9257   2.866   3.417   3.232 -0.5748 -0.9567 -1.8140
 2889SOL     OW 9258   3.874   1.972   2.957  0.2132 -0.4394 -0.1436
 2889SOL    HW1 9259   3.926   2.050   2.977 -1.1445  0.9816 -1.8029
 2889SOL    HW2 9260   3.927   1.923   2.895  0.3728  0.0302 -0.3831
 2890SOL     OW 9261   4.302   1.554   1.676  0.4225 -0.1893  0.1899
 2890SOL    HW1 9262   4.375   1.547   1.615  0.0525  0.9870 -0.4279
 2890SOL    HW2 9263   4.339   1.529   1.761  0.8021 -2.4373 -0.5591
 2891SOL     OW 9264   5.270   3.428   1.630  0.0152 -0.0575 -0.1976
 2891SOL    HW1 9265   5.355   3.416   1.587 -0.0007 -1.8913  0.1791
 2891SOL    HW2 9266   5.216   3.358   1.594 -0.6081 -0.3852  1.3087
 2892SOL     OW 9267   2.819   1.018   3.158 -0.0483  0.1221 -0.2931
 2892SOL    HW1 9268   2.846   1.109   3.148 -0.2114  0.1680 -0.3011
 2892SOL    HW2 9269   2.781   0.994   3.074  1.8681 -0.5750 -1.0285
 2893SOL     OW 9270   4.682   1.152   0.858 -0.5384 -0.3332  0.1299
 2893SOL    HW1 9271   4.661   1.125   0.769  0.5336  1.7198 -0.8335
 2893SOL    HW2 9272   4.597   1.169   0.899 -1.1414 -3.0265  0.1707
 2894SOL     OW 9273   3.937   1.710   0.147 -0.3546  0.1554  0.5252
 2894SOL    HW1 9274   3.853   1.689   0.189 -0.6104  0.8316  0.3639
 2894SOL    HW2 9275   4.002   1.700   0.217 -0.7625  1.1317  1.0534
 2895SOL     OW 9276   4.167   2.134   2.725 -0.0756  0.1301  0.7558
 2895SOL    HW1 9277   4.099   2.200   2.712 -0.2294 -0.2376 -0.4097
 2895SOL    HW2 9278   4.228   2.147   2.652 -0.7324 -1.7438 -0.1721
 2896SOL     OW 9279   6.306   2.317   2.403 -0.2160  0.4046 -0.4286
 2896SOL    HW1 9280   6.344   2.239   2.363 -0.0119 -0.3625  1.1572
 2896SOL    HW2 9281   6.227   2.334   2.352 -0.9376 -1.5893 -0.0907
 2897SOL     OW 9282   4.647   0.141   1.241  0.1633  0.0641 -0.5039
 2897SOL    HW1 9283   4.702   0.212   1.209 -0.0363  0.6633  0.4452
 2897SOL    HW2 9284   4.565   0.150   1.193 -0.0983  0.8940  0.0685
 2898SOL     OW 9285   3.398   1.018   1.019  0.0167  0.2463  0.3761
 2898SOL    HW1 9286   3.428   0.949   0.961  0.2055  1.4445 -1.0242
 2898SOL    HW2 9287   3.313   1.045   0.983  0.6663  1.7880 -0.0735
 2899SOL     OW 9288   3.218   4.751   2.889  0.6943  0.6311 -0.4067
 2899SOL    HW1 9289   3.188   4.705   2.811 -0.4147  0.3432  0.1665
 2899SOL    HW2 9290   3.312   4.735   2.892  0.4628 -0.9236 -0.6636
 2900SOL     OW 9291   2.974   1.101   0.294  0.0106  0.2779 -0.1777
 2900SOL    HW1 9292   3.057   1.055   0.283 -0.4679 -0.4445 -0.8924
 2900SOL    HW2 9293   2.918   1.039   0.341 -0.6887  0.0477 -1.2748
 2901SOL     OW 9294   6.466   1.788   0.981  0.2095 -0.2570  0.1938
 2901SOL    HW1 9295   6.538   1.775   0.920  0.3302  1.0058  0.0288
 2901SOL    HW2 9296   6.507   1.827   1.058 -0.4581  1.9228 -0.4876
 2902SOL     OW 9297   4.398   3.355   1.651 -0.4624  0.1943  0.0332
 2902SOL    HW1 9298   4.328   3.403   1.605 -0.4428 -0.2190 -0.4308
 2902SOL    HW2 9299   4.472   3.416   1.651 -0.6144  0.3825 -0.0442
 2903SOL     OW 9300   5.677   3.670   0.457 -0.6740 -0.2189 -0.1181
 2903SOL    HW1 9301   5.611   3.629   0.402  0.6343 -1.5251 -0.8144
 2903SOL    HW2 9302   5.690   3.608   0.529  0.9293 -0.8278 -0.8753
 2904SOL     OW 9303   4.070   2.125   1.620 -0.1439  0.3800 -0.0775
 2904SOL    HW1 9304   4.105   2.036   1.614  0.1772  0.5425 -0.6415
 2904SOL    HW2 9305   4.081   2.162   1.532 -0.2327  0.9936  0.1613
 2905SOL     OW 9306   3.888   2.080   0.261  0.4626 -0.1548 -0.2722
 2905SOL    HW1 9307   3.951   2.125   0.204 -0.8624 -1.2234 -2.7382
 2905SOL    HW2 9308   3.805   2.126   0.246 -0.4894 -2.1121 -1.3517
 2906SOL     OW 9309   3.254   2.695   3.267 -0.0513 -0.1918  0.0859
 2906SOL    HW1 9310   3.295   2.652   3.342  0.1134 -1.6696 -0.8138
 2906SOL    HW2 9311   3.293   2.653   3.191 -1.9591 -0.4365 -0.8187
 2907SOL     OW 9312   4.988   0.735   1.769  0.1140  0.3986 -0.1715
 2907SOL    HW1 9313   5.071   0.695   1.742  1.4536  2.2591  0.8841
 2907SOL    HW2 9314   4.959   0.785   1.693  0.5577  0.6009 -0.2143
 2908SOL     OW 9315   5.668   0.939   3.143  0.1972 -0.1398  0.2742
 2908SOL    HW1 9316   5.576   0.921   3.160 -0.5790  0.5338 -2.6759
 2908SOL    HW2 9317   5.711   0.853   3.150 -1.1999 -1.0046 -1.1825
 2909SOL     OW 9318   5.428   4.093   1.558 -0.1198  0.0348  0.4721
 2909SOL    HW1 9319   5.357   4.117   1.617  0.3615  2.0983  0.2966
 2909SOL    HW2 9320   5.500   4.152   1.582 -0.6263  2.7134 -3.5905
 2910SOL     OW 9321   4.215   1.860   2.664 -0.1019  0.3283  0.4104
 2910SOL    HW1 9322   4.192   1.935   2.719 -0.3972  0.3882  0.2029
 2910SOL    HW2 9323   4.298   1.885   2.624 -0.2679  0.5998  0.2374
 2911SOL     OW 9324   4.807   5.420   0.534 -0.3973  0.2414 -0.3148
 2911SOL    HW1 9325   4.723   5.463   0.518  0.1066  0.2390 -3.6584
 2911SOL    HW2 9326   4.785   5.326   0.535 -0.7242  0.3027  1.4189
 2912SOL     OW 9327   5.210   3.694   1.705  0.2339 -0.3842  0.4079
 2912SOL    HW1 9328   5.290   3.706   1.757  0.6863 -2.7248  0.3582
 2912SOL    HW2 9329   5.213   3.603   1.677 -0.8100  0.3406 -2.4016
 2913SOL     OW 9330   3.379   1.325   3.155 -0.2870  0.1307 -0.0719
 2913SOL    HW1 9331   3.296   1.332   3.108  0.9025  0.4468 -2.2573
 2913SOL    HW2 9332   3.444   1.313   3.087  1.9606  3.6325  1.1763
 2914SOL     OW 9333   5.680   2.944   2.015  0.2016 -0.0924 -0.1371
 2914SOL    HW1 9334   5.724   2.942   2.099 -2.7422 -0.3627  1.5359
 2914SOL    HW2 9335   5.745   2.981   1.955  1.8696  1.7588  2.5841
 2915SOL     OW 9336   3.845   0.745   2.167 -0.6106 -0.2657  0.0448
 2915SOL    HW1 9337   3.781   0.765   2.234  0.1163  0.8569  0.4266
 2915SOL    HW2 9338   3.886   0.664   2.196 -0.9090 -0.2567  0.4891
 2916SOL     OW 9339   5.144   2.585   1.642 -0.2538  0.5113  0.2981
 2916SOL    HW1 9340   5.180   2.672   1.634 -0.5020  0.5339 -0.6832
 2916SOL    HW2 9341   5.211   2.535   1.688  0.2868  0.9767  0.0225
 2917SOL     OW 9342   2.959   0.938   3.442 -0.0012  0.0726  0.1119
 2917SOL    HW1 9343   2.884   0.952   3.500 -0.4611 -0.2410 -0.3979
 2917SOL    HW2 9344   2.965   1.017   3.389 -0.4863 -0.2413 -0.4164
 2918SOL     OW 9345   4.472   0.735   0.262 -0.6525 -0.4533 -0.4721
 2918SOL    HW1 9346   4.381   0.706   0.265 -0.7677 -0.0932  2.2536
 2918SOL    HW2 9347   4.469   0.828   0.286  0.3889 -0.2446 -1.0707
 2919SOL     OW 9348   4.294   2.996   0.191 -0.2854 -0.0603 -0.1162
 2919SOL    HW1 9349   4.389   3.011   0.198 -0.2311  0.3501 -1.3640
 2919SOL    HW2 9350   4.270   3.036   0.107 -1.4486 -0.7515 -0.1343
 2920SOL     OW 9351   5.082   2.987   1.640  0.4027  0.0895 -0.0634
 2920SOL    HW1 9352   5.015   2.944   1.587 -1.1315  0.8766  1.1823
 2920SOL    HW2 9353   5.159   2.930   1.631 -0.8676 -1.6823 -0.3092
 2921SOL     OW 9354   4.865   2.691   2.403  0.5454  0.0910 -0.1535
 2921SOL    HW1 9355   4.805   2.739   2.347 -0.8568 -1.4720 -0.0630
 2921SOL    HW2 9356   4.848   2.725   2.491  1.1936  0.9818 -0.3459
 2922SOL     OW 9357   2.882   2.330   1.713 -0.0160  0.4607 -0.3395
 2922SOL    HW1 9358   2.840   2.272   1.650 -1.1499  0.5589  0.3080
 2922SOL    HW2 9359   2.819   2.338   1.784 -0.2946  3.1733 -0.7855
 2923SOL     OW 9360   4.513   2.510   2.512 -0.1722 -0.2266  0.6280
 2923SOL    HW1 9361   4.595   2.547   2.545 -0.4110  0.4773  0.4462
 2923SOL    HW2 9362   4.540   2.439   2.454  0.3258  0.4555  0.0234
 2924SOL     OW 9363   6.517   3.606   2.133 -0.5039 -0.4389 -0.1372
 2924SOL    HW1 9364   6.561   3.528   2.099 -0.0056  0.2536 -1.0990
 2924SOL    HW2 9365   6.571   3.634   2.207 -0.9206 -1.2334  0.4932
 2925SOL     OW 9366   3.890   2.793   0.573 -0.2558 -0.7303  0.0354
 2925SOL    HW1 9367   3.857   2.848   0.644  0.2330 -0.7519  0.2836
 2925SOL    HW2 9368   3.860   2.837   0.493  0.1269 -0.0948  0.2313
 2926SOL     OW 9369   4.381   3.460   2.485 -0.3639  0.1391 -0.3186
 2926SOL    HW1 9370   4.375   3.534   2.546 -1.2594 -0.4798  0.3647
 2926SOL    HW2 9371   4.295   3.418   2.489  0.2742 -1.2200 -0.3223
 2927SOL     OW 9372   5.125   0.679   1.359 -0.2944 -0.0572  0.8550
 2927SOL    HW1 9373   5.135   0.640   1.272  1.9213  0.3693  0.8628
 2927SOL    HW2 9374   5.110   0.772   1.342 -0.1443 -0.0208  0.9215
 2928SOL     OW 9375   4.579   1.767   0.471 -0.2654 -0.3722 -0.0132
 2928SOL    HW1 9376   4.664   1.724   0.482 -0.1650  0.2754  2.4172
 2928SOL    HW2 9377   4.584   1.844   0.527 -1.8756  0.6340 -1.1668
 2929SOL     OW 9378   7.133   3.050   3.314 -0.4204  0.4694 -0.6464
 2929SOL    HW1 9379   7.223   3.061   3.283 -0.7119  1.0400 -1.3127
 2929SOL    HW2 9380   7.079   3.094   3.248 -1.0595  1.6305  0.6134
 2930SOL     OW 9381   5.875   1.801   2.919 -0.1320  0.0952 -0.2829
 2930SOL    HW1 9382   5.826   1.876   2.887 -0.1229  0.5593  0.7441
 2930SOL    HW2 9383   5.850   1.794   3.012  1.4397  0.1334  0.1754
 2931SOL     OW 9384   4.984   2.096   0.035 -0.0195  0.2243 -0.6448
 2931SOL    HW1 9385   4.919   2.066  -0.028  0.0204 -0.1876 -0.4971
 2931SOL    HW2 9386   4.934   2.111   0.116  0.0889 -0.2663 -0.4799
 2932SOL     OW 9387   0.388   2.814   1.342 -0.3621  0.3658  0.2033
 2932SOL    HW1 9388   0.374   2.863   1.261 -0.7099  0.6826  0.4498
 2932SOL    HW2 9389   0.305   2.768   1.356 -0.2771  0.2549  0.3421
 2933SOL     OW 9390   3.520   1.628   1.593 -0.1432  0.3300  0.2597
 2933SOL    HW1 9391   3.479   1.674   1.666 -2.2697  0.5283 -0.9812
 2933SOL    HW2 9392   3.597   1.680   1.573 -0.7661  1.5639  0.9283
 2934SOL     OW 9393   4.879   2.622   0.166  0.2792  0.5266 -0.3115
 2934SOL    HW1 9394   4.835   2.668   0.237 -0.8283 -0.3178 -0.4178
 2934SOL    HW2 9395   4.836   2.652   0.086 -0.8666 -1.0545 -0.3428
 2935SOL     OW 9396   3.427   3.998   0.214 -0.7622 -0.2725  0.6102
 2935SOL    HW1 9397   3.368   4.030   0.147  0.9980  0.1048 -0.8486
 2935SOL    HW2 9398   3.418   4.060   0.287  1.4134  2.8701 -1.5168
 2936SOL     OW 9399   4.309   2.881   2.439  0.5417 -0.5593 -0.2243
 2936SOL    HW1 9400   4.306   2.966   2.394 -0.8182 -1.2509 -1.4944
 2936SOL    HW2 9401   4.258   2.895   2.519  1.9481  0.3313  0.5685
 2937SOL     OW 9402   5.609   1.174   2.886  0.1348  0.2351  0.6777
 2937SOL    HW1 9403   5.628   1.183   2.793 -0.1275  0.2980  0.6309
 2937SOL    HW2 9404   5.537   1.235   2.902 -1.1953 -1.2007  0.4998
 2938SOL     OW 9405   3.808   3.309   3.089 -0.2388 -0.0455  0.0654
 2938SOL    HW1 9406   3.736   3.264   3.045 -1.5494  1.5268  0.5045
 2938SOL    HW2 9407   3.810   3.396   3.050 -0.5436  0.9442  2.1101
 2939SOL     OW 9408   3.470   2.954   0.505  0.7105 -0.2568  0.3102
 2939SOL    HW1 9409   3.518   2.883   0.547 -0.2489 -0.6581  0.7559
 2939SOL    HW2 9410   3.391   2.964   0.558  0.8315  1.1569  0.2584
 2940SOL     OW 9411   4.591   1.089   3.309 -0.0022  0.1260 -0.1243
 2940SOL    HW1 9412   4.623   1.029   3.242  0.5693  0.5097 -0.1985
 2940SOL    HW2 9413   4.496   1.093   3.295 -0.0968 -1.0603  0.1378
 2941SOL     OW 9414   2.933   1.557   2.062 -0.5258 -0.0340 -0.3400
 2941SOL    HW1 9415   3.003   1.622   2.067  1.9348 -2.4944 -0.1581
 2941SOL    HW2 9416   2.907   1.555   1.970  0.7052 -0.0488 -0.7040
 2942SOL     OW 9417   3.482   1.059   2.036  0.0873 -0.3663 -0.4437
 2942SOL    HW1 9418   3.393   1.072   2.069  0.9446  0.9543  1.5368
 2942SOL    HW2 9419   3.493   1.127   1.969  0.4474  1.3154  1.2307
 2943SOL     OW 9420   3.813   0.716   0.506 -0.6128  0.3307 -0.0666
 2943SOL    HW1 9421   3.823   0.651   0.576 -2.1203  0.1702  0.0166
 2943SOL    HW2 9422   3.764   0.787   0.546 -0.9297  0.5258 -0.7925
 2944SOL     OW 9423   5.705   5.263   3.066 -0.3762  0.4827  0.3999
 2944SOL    HW1 9424   5.755   5.209   3.006 -0.0572 -0.0162  1.1038
 2944SOL    HW2 9425   5.742   5.244   3.152 -2.7694 -1.1193  1.1910
 2945SOL     OW 9426   4.944   3.443   1.665  0.0936 -0.0045  0.5383
 2945SOL    HW1 9427   5.004   3.392   1.611 -0.9410 -1.9605  1.1380
 2945SOL    HW2 9428   4.857   3.426   1.628 -0.4133  0.2923  1.5463
 2946SOL     OW 9429   5.054   2.244   1.809  0.1667 -0.0047  0.2195
 2946SOL    HW1 9430   5.001   2.175   1.851  1.9902 -0.6212  1.6403
 2946SOL    HW2 9431   5.101   2.199   1.739  1.9439 -0.4572  1.6332
 2947SOL     OW 9432   3.817   3.559   2.910  0.6973 -0.1218 -0.5448
 2947SOL    HW1 9433   3.890   3.551   2.848  0.3250 -0.0794 -0.9960
 2947SOL    HW2 9434   3.761   3.627   2.872 -1.0601 -2.1326 -1.7409
 2948SOL     OW 9435   4.927   3.539   1.993 -1.2303 -0.4184 -0.2710
 2948SOL    HW1 9436   4.989   3.496   1.934 -0.2698  1.1575 -0.4773
 2948SOL    HW2 9437   4.844   3.494   1.978 -0.7953 -0.6537 -2.1779
 2949SOL     OW 9438   3.624   2.653   3.504  0.0725  0.4321  0.7482
 2949SOL    HW1 9439   3.633   2.688   3.592  1.2118  1.7578  0.1398
 2949SOL    HW2 9440   3.699   2.687   3.456 -0.0486 -0.9553 -0.5275
 2950SOL     OW 9441   6.282   0.341   0.350  0.2113  0.1239 -0.5100
 2950SOL    HW1 9442   6.272   0.276   0.281 -0.2480 -0.2551 -0.0918
 2950SOL    HW2 9443   6.232   0.306   0.424  0.6851  0.5242  0.0135
 2951SOL     OW 9444   6.013   3.015   1.082 -0.0207  0.0567 -0.3313
 2951SOL    HW1 9445   6.074   3.054   1.019  0.5073  0.1684  0.2384
 2951SOL    HW2 9446   5.990   3.086   1.141  0.7960 -0.4085  0.5970
 2952SOL     OW 9447   3.547   3.458   3.511 -0.4139 -0.0354 -0.2905
 2952SOL    HW1 9448   3.605   3.517   3.559 -0.2368  0.1050 -0.6728
 2952SOL    HW2 9449   3.486   3.516   3.466 -0.7899 -0.1782  0.0273
 2953SOL     OW 9450   3.738   3.639   0.102  0.5031 -0.5609  0.2923
 2953SOL    HW1 9451   3.833   3.628   0.101  1.0447  2.8960  1.1139
 2953SOL    HW2 9452   3.725   3.734   0.097 -2.8240 -0.7534  2.4703
 2954SOL     OW 9453   3.861   2.936   0.359 -0.1332  0.2458  0.0406
 2954SOL    HW1 9454   3.929   2.978   0.307  0.9091 -3.9647 -2.5092
 2954SOL    HW2 9455   3.779   2.961   0.317  0.5818 -1.5445 -2.6579
 2955SOL     OW 9456   2.755   0.106   3.194 -0.8013  0.4782 -0.3046
 2955SOL    HW1 9457   2.794   0.032   3.241  0.6872  2.6264  2.1361
 2955SOL    HW2 9458   2.758   0.081   3.102 -0.1287 -2.3516  0.4020
 2956SOL     OW 9459   6.152   3.607   1.631  0.2100  0.6964  0.4208
 2956SOL    HW1 9460   6.187   3.522   1.658  0.9126  0.8056 -0.1075
 2956SOL    HW2 9461   6.230   3.659   1.612 -0.2385  0.9533 -0.7758
 2957SOL     OW 9462   4.616   4.626   2.514 -0.6884 -0.5752  0.7294
 2957SOL    HW1 9463   4.627   4.618   2.609  2.9328  0.2498  0.5255
 2957SOL    HW2 9464   4.613   4.535   2.483 -1.8842 -0.8515  1.5935
 2958SOL     OW 9465   5.597   4.119   2.131 -0.3298  0.3797 -0.8326
 2958SOL    HW1 9466   5.596   4.198   2.186  1.4544 -1.1699  1.6187
 2958SOL    HW2 9467   5.509   4.082   2.141 -0.4990  0.9184 -0.2372
 2959SOL     OW 9468   3.678   4.529   1.103 -0.5788 -0.1699  0.2069
 2959SOL    HW1 9469   3.739   4.520   1.029 -2.0201 -0.9973 -0.9338
 2959SOL    HW2 9470   3.644   4.618   1.096 -1.0720 -0.4021 -0.4381
 2960SOL     OW 9471   4.452   0.077   2.920  0.0906 -0.5469 -0.2766
 2960SOL    HW1 9472   4.424   0.138   2.988  0.8971  0.9111 -1.1757
 2960SOL    HW2 9473   4.520   0.125   2.872 -0.8780 -1.2558 -2.4970
 2961SOL     OW 9474   3.948   0.929   1.272 -0.6738  0.1685 -0.0918
 2961SOL    HW1 9475   3.856   0.903   1.267 -1.1360  1.7533 -0.4472
 2961SOL    HW2 9476   3.961   0.955   1.363 -0.7664  0.5793 -0.1947
 2962SOL     OW 9477   4.223   0.905   2.372  0.2669  0.4285  0.3118
 2962SOL    HW1 9478   4.198   0.967   2.304  1.8050 -0.0670 -0.7793
 2962SOL    HW2 9479   4.196   0.819   2.338  0.1848  0.2693  0.7658
 2963SOL     OW 9480   4.135   0.235   0.111 -0.2431 -0.1299  0.0917
 2963SOL    HW1 9481   4.127   0.254   0.017 -1.7789  0.0317  0.2307
 2963SOL    HW2 9482   4.049   0.255   0.147  0.0953 -0.9417  1.4166
 2964SOL     OW 9483   4.271   4.239   1.505 -0.0656  0.5006 -1.5278
 2964SOL    HW1 9484   4.310   4.287   1.433  0.5972  1.3612 -0.6307
 2964SOL    HW2 9485   4.189   4.204   1.470 -0.0016  1.3319 -2.5318
 2965SOL     OW 9486   4.250   4.527   2.721 -0.6357 -0.5799  0.7441
 2965SOL    HW1 9487   4.155   4.526   2.731 -0.6106  0.2070  1.1012
 2965SOL    HW2 9488   4.270   4.616   2.692  0.2600  0.1752  3.4150
 2966SOL     OW 9489   5.381   4.585   3.129  0.8048 -0.4037  0.1343
 2966SOL    HW1 9490   5.415   4.577   3.040  0.7801  0.4835  0.0338
 2966SOL    HW2 9491   5.413   4.670   3.159 -0.4670  0.0067  0.4071
 2967SOL     OW 9492   5.510   0.046   3.033  0.2393 -0.2609  0.4867
 2967SOL    HW1 9493   5.488   0.074   2.944 -0.8963 -1.5852  0.3359
 2967SOL    HW2 9494   5.597   0.007   3.025  1.1434  1.6472  0.4079
 2968SOL     OW 9495   4.125   1.594   0.904  0.0259 -0.1675 -0.0259
 2968SOL    HW1 9496   4.035   1.564   0.914  0.4270 -2.1435 -1.6362
 2968SOL    HW2 9497   4.118   1.676   0.856 -0.9362 -0.3765 -0.2683
 2969SOL     OW 9498   4.686   4.857   0.381  0.4251  0.3090  0.4561
 2969SOL    HW1 9499   4.667   4.842   0.288 -0.2769  0.0269  0.6457
 2969SOL    HW2 9500   4.752   4.791   0.402  0.8301  0.5827  0.0802
 2970SOL     OW 9501   4.507   2.900   0.812 -0.4505 -0.3440 -0.0723
 2970SOL    HW1 9502   4.524   2.990   0.841 -0.4337 -0.2305 -0.4367
 2970SOL    HW2 9503   4.583   2.851   0.843  1.7206  0.5275 -3.5044
 2971SOL     OW 9504   4.733   1.729   1.542  0.4567 -0.4502  0.4221
 2971SOL    HW1 9505   4.788   1.807   1.549  0.1313 -0.3398  2.4553
 2971SOL    HW2 9506   4.644   1.763   1.544  0.1596 -0.5810 -3.3780
 2972SOL     OW 9507   3.661   4.770   3.187  0.1354 -0.3619  0.7416
 2972SOL    HW1 9508   3.720   4.694   3.183 -0.8629 -1.1279 -0.4158
 2972SOL    HW2 9509   3.592   4.749   3.124  0.8491  2.4036 -1.1158
 2973SOL     OW 9510   4.087   5.384   1.354  0.9815  0.3784  0.2452
 2973SOL    HW1 9511   4.114   5.312   1.297  1.7502  0.3015  0.6896
 2973SOL    HW2 9512   4.018   5.429   1.305 -0.1824 -1.2124  0.3730
 2974SOL     OW 9513   3.665   4.402   2.850  0.0852 -0.0681 -0.8999
 2974SOL    HW1 9514   3.683   4.489   2.814  1.0141  0.6796  1.2024
 2974SOL    HW2 9515   3.571   4.403   2.868  0.0680  0.4555 -0.9826
 2975SOL     OW 9516   6.359   1.134   1.016  0.0501  0.3050 -0.1987
 2975SOL    HW1 9517   6.312   1.175   0.944  0.6426 -0.6299 -1.1276
 2975SOL    HW2 9518   6.451   1.146   0.995  0.2536  0.8688  0.8990
 2976SOL     OW 9519   4.075   0.339   1.895 -0.0833 -0.3227 -0.6191
 2976SOL    HW1 9520   4.028   0.413   1.856 -0.6652 -1.1845 -1.6232
 2976SOL    HW2 9521   4.161   0.340   1.853 -0.0337 -0.1062 -0.5080
 2977SOL     OW 9522   6.054   0.610   0.504  0.7314  0.2788  0.0736
 2977SOL    HW1 9523   5.997   0.557   0.561  0.3658  2.1480  1.5602
 2977SOL    HW2 9524   6.137   0.615   0.552  1.2298 -0.0837 -0.7349
 2978SOL     OW 9525   5.446   4.897   1.564  0.1498  0.0829  0.0451
 2978SOL    HW1 9526   5.455   4.820   1.620 -0.4367 -1.3504 -1.7489
 2978SOL    HW2 9527   5.375   4.947   1.603 -0.5474 -1.1170  0.3681
 2979SOL     OW 9528   4.049   3.274   3.179  0.0173 -0.2171  0.2445
 2979SOL    HW1 9529   4.116   3.321   3.129  1.0042 -1.3392  0.4472
 2979SOL    HW2 9530   3.966   3.300   3.140  0.7163 -0.6848 -1.6653
 2980SOL     OW 9531   4.514   4.599   1.191 -0.4534 -0.0436 -0.2265
 2980SOL    HW1 9532   4.596   4.639   1.162  2.2172 -1.7299  4.1035
 2980SOL    HW2 9533   4.454   4.673   1.200  0.9361  1.4494 -2.2108
 2981SOL     OW 9534   3.501   5.116   3.437 -0.2226 -0.2044 -0.1142
 2981SOL    HW1 9535   3.466   5.089   3.352  2.3823  1.5628 -1.8922
 2981SOL    HW2 9536   3.569   5.052   3.456 -0.9202 -0.6960  0.7584
 2982SOL     OW 9537   5.088   3.572   2.189 -0.4231 -0.8525 -0.6251
 2982SOL    HW1 9538   5.041   3.560   2.107 -1.0634  1.0795 -0.5868
 2982SOL    HW2 9539   5.178   3.589   2.164 -0.7058  0.1952 -0.9849
 2983SOL     OW 9540   7.118   3.322   0.533  0.4676 -0.2452 -0.1225
 2983SOL    HW1 9541   7.131   3.236   0.573 -0.6558 -0.9187 -1.1794
 2983SOL    HW2 9542   7.025   3.341   0.545  0.5660  0.5273 -0.5088
 2984SOL     OW 9543   4.823   3.997   0.882  0.0263  0.2208  0.5394
 2984SOL    HW1 9544   4.735   3.970   0.909  0.7434 -1.6622  1.2021
 2984SOL    HW2 9545   4.876   3.990   0.961  1.5577 -2.6248 -0.5561
 2985SOL     OW 9546   4.624   2.332   0.089  0.6560  0.4503  0.0565
 2985SOL    HW1 9547   4.596   2.382   0.166  2.6971  0.2875  0.9957
 2985SOL    HW2 9548   4.589   2.380   0.014  1.0566  2.3011  0.9965
 2986SOL     OW 9549   4.719   5.225   1.986  0.3486  0.0055 -0.0267
 2986SOL    HW1 9550   4.754   5.254   2.070  0.5716 -0.3547  0.0088
 2986SOL    HW2 9551   4.701   5.306   1.938  1.0546  0.2007  0.0288
 2987SOL     OW 9552   3.293   3.235   1.873  0.8960 -0.0291 -0.6504
 2987SOL    HW1 9553   3.262   3.144   1.872 -0.7152  0.4967 -0.2394
 2987SOL    HW2 9554   3.345   3.242   1.792  1.6746 -1.4949 -0.3311
 2988SOL     OW 9555   5.689   5.116   1.262 -0.2215 -0.1396  0.3167
 2988SOL    HW1 9556   5.685   5.076   1.175 -1.4454 -0.1578  0.3578
 2988SOL    HW2 9557   5.715   5.045   1.320 -0.1613 -0.3245  0.0653
 2989SOL     OW 9558   5.079   0.065   0.618  0.4164 -0.3665 -0.4731
 2989SOL    HW1 9559   5.085   0.020   0.702  0.1350 -0.6128 -0.5806
 2989SOL    HW2 9560   4.991   0.044   0.586 -0.6833  2.2312  0.5679
 2990SOL     OW 9561   3.181   3.575   1.642 -0.4824 -0.1715 -0.0791
 2990SOL    HW1 9562   3.211   3.646   1.699 -1.4238  1.0154 -1.0116
 2990SOL    HW2 9563   3.086   3.582   1.642 -0.5061 -0.2476 -1.6591
 2991SOL     OW 9564   3.875   4.948   2.077 -0.0860 -0.8250 -0.0962
 2991SOL    HW1 9565   3.957   4.987   2.046 -0.7125  0.1183 -0.6256
 2991SOL    HW2 9566   3.860   4.875   2.017 -0.3930 -0.0784 -0.9426
 2992SOL     OW 9567   5.462   4.863   1.054 -0.1232  0.1731  0.1888
 2992SOL    HW1 9568   5.433   4.889   1.142 -0.5322 -0.2784  0.1915
 2992SOL    HW2 9569   5.412   4.784   1.035 -2.5147  2.0110 -1.7918
 2993SOL     OW 9570   3.570   5.190   0.216 -0.2358  0.3442 -0.5686
 2993SOL    HW1 9571   3.653   5.165   0.175 -0.6811 -1.1723 -0.6103
 2993SOL    HW2 9572   3.510   5.202   0.143  0.2252  2.8026 -0.6393
 2994SOL     OW 9573   5.326   4.890   1.305 -0.1134 -0.0469 -0.8620
 2994SOL    HW1 9574   5.278   4.807   1.301  0.6204 -0.5693  0.4853
 2994SOL    HW2 9575   5.363   4.892   1.393  2.7169  0.0737 -1.9513
 2995SOL     OW 9576   4.316   5.050   0.053 -0.5713  0.0907 -0.4051
 2995SOL    HW1 9577   4.343   5.072  -0.036  0.9907 -0.4769 -0.1139
 2995SOL    HW2 9578   4.376   5.100   0.109 -1.1788  0.0185  0.3232
 2996SOL     OW 9579   3.177   4.057   0.315  0.3504 -0.1959 -0.3933
 2996SOL    HW1 9580   3.145   3.969   0.334  1.1112 -0.5239 -0.6005
 2996SOL    HW2 9581   3.100   4.114   0.327 -0.2554 -0.9367 -0.7036
 2997SOL     OW 9582   4.898   0.207   3.381  0.1518  0.2672  0.0374
 2997SOL    HW1 9583   4.883   0.226   3.288 -0.4475  0.5101  0.1790
 2997SOL    HW2 9584   4.926   0.116   3.382  0.4912  0.3629 -0.4128
 2998SOL     OW 9585   2.842   5.411   0.383 -0.3294  0.2927  0.2047
 2998SOL    HW1 9586   2.913   5.448   0.330  0.7002  0.1819  1.4435
 2998SOL    HW2 9587   2.829   5.476   0.452 -0.6233 -0.2382  0.6517
 2999SOL     OW 9588   5.878   3.997   0.256 -0.0282  0.1616  0.1302
 2999SOL    HW1 9589   5.831   4.065   0.306  0.0128 -0.1655  0.6178
 2999SOL    HW2 9590   5.967   3.999   0.291  0.4015  0.9253 -0.9391
 3000SOL     OW 9591   4.407   0.742   1.411  0.3144 -0.3587  0.6937
 3000SOL    HW1 9592   4.381   0.805   1.344 -1.9561 -1.1039  0.7710
 3000SOL    HW2 9593   4.457   0.793   1.474 -1.1222  1.3251  0.5522
 3001SOL     OW 9594   6.438   4.659   0.322 -0.3504 -0.1590 -0.1215
 3001SOL    HW1 9595   6.507   4.700   0.374 -1.7751  0.7183  1.1732
 3001SOL    HW2 9596   6.423   4.575   0.365 -2.2020  0.9732  1.6044
 3002SOL     OW 9597   3.600   1.622   2.939 -0.2834  0.2228 -0.2871
 3002SOL    HW1 9598   3.515   1.665   2.939  0.4953  1.8625 -0.8145
 3002SOL    HW2 9599   3.656   1.678   2.993  0.1370 -1.6169  1.3073
 3003SOL     OW 9600   3.439   4.413   1.724 -0.1400  0.1302  0.0469
 3003SOL    HW1 9601   3.485   4.371   1.796 -1.8913 -1.7733  0.1087
 3003SOL    HW2 9602   3.347   4.411   1.748 -0.4881  2.3942 -0.8145
 3004SOL     OW 9603   5.081   1.424   2.136  0.7137 -0.7409  0.7688
 3004SOL    HW1 9604   5.127   1.340   2.136  1.7528 -0.2180 -0.6942
 3004SOL    HW2 9605   5.066   1.443   2.043 -1.9870 -0.6012  1.1490
 3005SOL     OW 9606   5.238   3.436   2.596 -0.5615  0.0914  0.0811
 3005SOL    HW1 9607   5.319   3.425   2.546 -0.2386  1.3399  0.3190
 3005SOL    HW2 9608   5.169   3.410   2.534 -0.0536 -0.0012 -0.4571
 3006SOL     OW 9609   2.017   0.087   3.044 -0.3327 -0.2575 -0.1241
 3006SOL    HW1 9610   1.990   0.033   2.970  0.5736 -0.7711 -0.0982
 3006SOL    HW2 9611   2.087   0.143   3.010 -1.0959  0.7379 -0.0854
 3007SOL     OW 9612   0.204   4.200   1.957 -0.3914 -0.1365  0.1295
 3007SOL    HW1 9613   0.178   4.288   1.932  0.5011 -0.1885 -1.0921
 3007SOL    HW2 9614   0.169   4.188   2.045  0.7547  2.0113  0.9484
 3008SOL     OW 9615   3.121   4.085   3.468 -0.6596 -0.0878  0.9810
 3008SOL    HW1 9616   3.105   4.036   3.387 -0.9477  1.2282  0.2107
 3008SOL    HW2 9617   3.071   4.037   3.534  1.5255 -2.6082  0.9565
 3009SOL     OW 9618   4.067   0.117   1.605  0.3225 -0.0319 -0.5162
 3009SOL    HW1 9619   4.102   0.057   1.538  0.9751  0.8268 -0.9684
 3009SOL    HW2 9620   3.972   0.112   1.593  0.3294 -1.3293 -0.2215
 3010SOL     OW 9621   4.245   4.017   2.484  0.2108 -0.0206 -0.5195
 3010SOL    HW1 9622   4.230   4.106   2.516 -0.1632 -0.6626  1.1950
 3010SOL    HW2 9623   4.332   4.020   2.443  0.9478  0.7462  1.0424
 3011SOL     OW 9624   5.707   4.082   1.312 -0.0999 -0.2803  0.1767
 3011SOL    HW1 9625   5.707   4.161   1.259  0.6844 -0.8370 -0.6806
 3011SOL    HW2 9626   5.616   4.052   1.311 -0.1345 -0.1708 -0.6881
 3012SOL     OW 9627   3.959   4.361   0.491  0.2629  0.1042  1.2965
 3012SOL    HW1 9628   4.040   4.383   0.536 -0.3063 -0.7265  2.7655
 3012SOL    HW2 9629   3.941   4.270   0.514  0.3332 -0.6419 -1.2432
 3013SOL     OW 9630   6.172   1.987   2.410  0.5915 -0.2216 -0.4662
 3013SOL    HW1 9631   6.167   2.053   2.478  0.6122  1.4431 -2.0084
 3013SOL    HW2 9632   6.108   1.921   2.436  0.2182  0.6380  0.8726
 3014SOL     OW 9633   4.031   2.611   3.259 -0.0390  0.5273  0.0194
 3014SOL    HW1 9634   4.037   2.516   3.263  0.8753  0.5312 -1.0441
 3014SOL    HW2 9635   4.089   2.636   3.188 -1.0456  1.8074 -0.3885
 3015SOL     OW 9636   6.307   3.710   3.105 -0.2459 -0.4974  0.0124
 3015SOL    HW1 9637   6.368   3.680   3.173  0.3656 -0.9612 -0.7282
 3015SOL    HW2 9638   6.290   3.632   3.052 -0.2429 -0.0065 -0.7227
 3016SOL     OW 9639   3.273   5.124   2.486  0.0925  0.6403 -0.4280
 3016SOL    HW1 9640   3.252   5.215   2.504 -2.9131  0.1707 -0.9639
 3016SOL    HW2 9641   3.345   5.127   2.422 -1.0110  2.7038 -1.6787
 3017SOL     OW 9642   5.599   4.944   3.406  0.0001 -1.0010  0.1539
 3017SOL    HW1 9643   5.646   4.926   3.324  0.5522 -1.9243  0.6591
 3017SOL    HW2 9644   5.658   5.004   3.453 -0.4605 -0.2195 -0.2439
 3018SOL     OW 9645   3.641   3.992   3.366  0.0376  0.3294  1.1314
 3018SOL    HW1 9646   3.635   3.988   3.462 -0.7784 -1.6701  1.0407
 3018SOL    HW2 9647   3.554   3.965   3.335 -0.0071  1.8823 -0.1874
 3019SOL     OW 9648   5.723   3.686   1.358 -0.2505 -0.1364 -0.1935
 3019SOL    HW1 9649   5.804   3.660   1.401  0.1175 -1.3156 -1.5257
 3019SOL    HW2 9650   5.750   3.749   1.291 -0.6833  0.8461  0.5246
 3020SOL     OW 9651   4.914   3.846   3.403 -0.1266  0.2373  0.0373
 3020SOL    HW1 9652   4.957   3.886   3.478 -2.0334  0.9848  0.7930
 3020SOL    HW2 9653   4.830   3.891   3.397 -0.4769 -0.5799 -1.8800
 3021SOL     OW 9654   5.444   4.628   0.414 -0.1610 -0.4573 -0.0197
 3021SOL    HW1 9655   5.436   4.706   0.359  0.1232 -1.5182 -1.6279
 3021SOL    HW2 9656   5.355   4.593   0.419  0.0807 -1.3567 -1.3819
 3022SOL     OW 9657   2.168   1.106   1.688 -0.0314 -0.0331  0.1774
 3022SOL    HW1 9658   2.102   1.164   1.726  1.6054  0.9146  1.8169
 3022SOL    HW2 9659   2.148   1.019   1.723 -1.5372 -0.1773 -0.9650
 3023SOL     OW 9660   2.303   5.122   3.319  0.3478  0.2510  0.0636
 3023SOL    HW1 9661   2.355   5.041   3.317 -0.7460 -0.5147  0.8927
 3023SOL    HW2 9662   2.239   5.111   3.249  0.6052  0.6930 -0.2407
 3024SOL     OW 9663   4.646   2.627   3.412  0.1088 -0.5867  0.3024
 3024SOL    HW1 9664   4.738   2.632   3.389  0.0643 -1.3422 -0.0742
 3024SOL    HW2 9665   4.602   2.604   3.331 -0.5034  0.4522  0.3216
 3025SOL     OW 9666   4.503   4.026   2.456  0.0881  0.1346  0.1680
 3025SOL    HW1 9667   4.541   4.068   2.379  0.2248 -2.5487 -1.3271
 3025SOL    HW2 9668   4.555   4.059   2.529  1.7598  0.6591 -1.1981
 3026SOL     OW 9669   6.079   3.998   1.643  0.2926  0.2163  0.2638
 3026SOL    HW1 9670   6.162   4.025   1.604 -0.2131  0.0156 -0.9743
 3026SOL    HW2 9671   6.012   4.026   1.580 -0.3007 -3.6928 -1.0902
 3027SOL     OW 9672   6.039   4.337   2.538  0.3629  0.1977  0.0495
 3027SOL    HW1 9673   6.076   4.343   2.450 -1.5725 -0.6230 -0.8918
 3027SOL    HW2 9674   6.064   4.250   2.569 -0.4493 -0.2175 -0.4388
 3028SOL     OW 9675   4.482   0.781   3.051  0.4118 -0.1194 -0.0742
 3028SOL    HW1 9676   4.490   0.801   2.958  1.1093  1.7827  0.3549
 3028SOL    HW2 9677   4.567   0.803   3.088 -0.6246  1.6455  1.4224
 3029SOL     OW 9678   5.163   4.607   0.596 -0.2286 -0.4012  0.4451
 3029SOL    HW1 9679   5.246   4.632   0.635 -0.6964  0.4753  0.8969
 3029SOL    HW2 9680   5.105   4.591   0.671 -0.5110 -0.8889  0.1334
 3030SOL     OW 9681   4.429   3.723   2.912  0.0493 -0.2326  0.3919
 3030SOL    HW1 9682   4.410   3.817   2.907  0.2990  0.0061  2.8651
 3030SOL    HW2 9683   4.510   3.718   2.963  1.0979 -1.7405 -1.2916
 3031SOL     OW 9684   3.818   5.012   1.078 -0.3085  0.1564  0.4022
 3031SOL    HW1 9685   3.858   4.997   0.993  0.5830  1.2704  0.6125
 3031SOL    HW2 9686   3.825   4.928   1.123 -2.1822 -0.9144 -1.1430
 3032SOL     OW 9687   4.660   5.216   2.742 -0.1614 -0.1164 -0.2962
 3032SOL    HW1 9688   4.590   5.217   2.808 -1.3947 -1.0589 -1.5202
 3032SOL    HW2 9689   4.680   5.123   2.730 -0.0328  0.0336 -1.3088
 3033SOL     OW 9690   6.011   5.271   0.466 -0.6203  0.4860  0.3286
 3033SOL    HW1 9691   6.045   5.248   0.552 -0.6722 -0.5201  0.0945
 3033SOL    HW2 9692   6.084   5.257   0.406 -1.4859 -2.1403 -0.2416
 3034SOL     OW 9693   5.322   4.510   1.239 -0.4249  0.4370  0.0369
 3034SOL    HW1 9694   5.289   4.431   1.281  1.6397 -0.4516  0.1166
 3034SOL    HW2 9695   5.290   4.582   1.293 -0.2317 -0.5089  1.4540
 3035SOL     OW 9696   3.837   0.199   1.283  0.2822  0.0408  0.4224
 3035SOL    HW1 9697   3.775   0.135   1.247  0.3840  0.8802 -1.3577
 3035SOL    HW2 9698   3.810   0.210   1.374 -0.5247 -1.5766  0.4127
 3036SOL     OW 9699   4.959   0.023   1.270  0.1424  0.5716 -0.0111
 3036SOL    HW1 9700   4.919   0.060   1.349  1.2578  0.4522  0.6368
 3036SOL    HW2 9701   4.935  -0.070   1.273  0.6951  0.4359  0.5439
 3037SOL     OW 9702   5.887   0.626   2.846  0.5346  0.4071  0.2356
 3037SOL    HW1 9703   5.852   0.622   2.757  0.4384 -1.3844  0.3102
 3037SOL    HW2 9704   5.974   0.665   2.836  0.1974  0.9773 -0.5265
 3038SOL     OW 9705   3.654   2.981   3.272 -0.6574  0.0110 -0.3279
 3038SOL    HW1 9706   3.656   3.077   3.270 -2.4765  0.0772 -1.1640
 3038SOL    HW2 9707   3.562   2.959   3.262 -0.1393 -1.8586 -1.4813
 3039SOL     OW 9708   3.843   2.559   0.669  0.5837  0.6116  0.1759
 3039SOL    HW1 9709   3.855   2.617   0.595 -0.6221  0.7997  0.0994
 3039SOL    HW2 9710   3.830   2.617   0.744 -1.3033  0.5108 -0.0112
 3040SOL     OW 9711   5.186   0.189   3.235  0.0622 -0.1548 -0.6406
 3040SOL    HW1 9712   5.113   0.247   3.215  0.3504  0.5396  0.2899
 3040SOL    HW2 9713   5.221   0.221   3.318  0.5262 -1.3644 -0.3423
 3041SOL     OW 9714   5.009   0.214   2.295 -0.5058  0.6024 -0.1534
 3041SOL    HW1 9715   5.035   0.186   2.383  0.1992 -1.0248 -0.8368
 3041SOL    HW2 9716   5.076   0.178   2.238 -2.0140 -0.1036 -1.5504
 3042SOL     OW 9717   3.249   4.485   1.287 -0.5514 -0.0602 -0.7628
 3042SOL    HW1 9718   3.296   4.560   1.323 -1.5359  0.6047 -0.8351
 3042SOL    HW2 9719   3.262   4.491   1.193 -1.6546  0.7587 -0.8869
 3043SOL     OW 9720   3.303   4.847   0.008  0.2103 -0.1340 -0.3015
 3043SOL    HW1 9721   3.303   4.937  -0.026 -0.6817  0.3652  0.9450
 3043SOL    HW2 9722   3.395   4.819   0.002  0.0021 -0.5035 -4.0375
 3044SOL     OW 9723   5.557   1.014   1.943 -0.3149  0.3056  0.0759
 3044SOL    HW1 9724   5.509   0.964   2.009 -1.0155  0.4051 -0.3457
 3044SOL    HW2 9725   5.513   0.992   1.861 -0.3577  1.2811 -0.1729
 3045SOL     OW 9726   2.822   4.669   0.210 -0.5650  0.0227  0.0618
 3045SOL    HW1 9727   2.735   4.647   0.177 -0.4253 -1.4578  0.6008
 3045SOL    HW2 9728   2.810   4.680   0.304 -0.1685 -0.1993  0.1388
 3046SOL     OW 9729   4.245   1.071   1.031 -0.4495  0.5436  0.2064
 3046SOL    HW1 9730   4.240   1.038   1.121  0.3570 -1.1550 -0.3432
 3046SOL    HW2 9731   4.320   1.026   0.992 -1.5756  0.1982 -1.7229
 3047SOL     OW 9732   4.112   4.632   2.255  0.0908 -0.0545 -0.7455
 3047SOL    HW1 9733   4.147   4.719   2.277  0.1664  0.5032 -2.8007
 3047SOL    HW2 9734   4.189   4.576   2.251  0.5851  0.6734 -3.0678
 3048SOL     OW 9735   4.406   0.279   2.278 -0.6612  0.4060 -0.3781
 3048SOL    HW1 9736   4.447   0.321   2.354  0.1941  0.8267 -1.0493
 3048SOL    HW2 9737   4.312   0.286   2.295 -0.4799 -0.2455  1.0235
 3049SOL     OW 9738   4.616   2.994   1.959  0.5573  0.0307 -0.2000
 3049SOL    HW1 9739   4.633   3.052   1.884  1.7271  1.3376  1.0258
 3049SOL    HW2 9740   4.639   3.046   2.036 -0.5781 -1.2896  1.0985
 3050SOL     OW 9741   4.892   5.273   2.199  0.0823 -0.1659 -0.0505
 3050SOL    HW1 9742   4.965   5.290   2.259 -0.1441  0.9637 -0.0658
 3050SOL    HW2 9743   4.815   5.270   2.256  0.1218 -1.3061 -0.0398
 3051SOL     OW 9744   4.322   0.726   0.632  0.0073 -0.2520 -0.3125
 3051SOL    HW1 9745   4.249   0.751   0.689  0.1378 -0.1459 -0.1911
 3051SOL    HW2 9746   4.286   0.657   0.576  0.0337 -0.7787  0.3001
 3052SOL     OW 9747   3.661   3.911   0.128 -0.5201  0.1249  0.4207
 3052SOL    HW1 9748   3.589   3.948   0.179 -0.7231  0.1241  0.1416
 3052SOL    HW2 9749   3.740   3.948   0.167 -0.6785  0.2071  0.6654
 3053SOL     OW 9750   5.318   5.320   0.467  0.4615 -0.0896 -0.1940
 3053SOL    HW1 9751   5.238   5.351   0.509 -0.2279 -0.4058 -1.2328
 3053SOL    HW2 9752   5.386   5.332   0.533 -0.7496 -1.5888  1.4254
 3054SOL     OW 9753   3.333   4.430   0.542  0.1225 -0.0848 -0.3579
 3054SOL    HW1 9754   3.328   4.494   0.470 -0.1695  1.4397  0.9500
 3054SOL    HW2 9755   3.270   4.462   0.606 -1.0071 -2.4638 -0.1774
 3055SOL     OW 9756   6.023   3.128   2.230 -0.3780 -0.0080 -0.1083
 3055SOL    HW1 9757   6.063   3.214   2.220 -0.1541  0.1767  1.9142
 3055SOL    HW2 9758   6.096   3.070   2.253 -0.8467 -0.2177  0.9195
 3056SOL     OW 9759   5.803   4.297   2.018 -0.1023 -0.5120 -0.3089
 3056SOL    HW1 9760   5.727   4.270   2.070 -0.2235 -1.9817 -1.1903
 3056SOL    HW2 9761   5.820   4.222   1.960  2.0297 -0.2059 -0.1402
 3057SOL     OW 9762   5.158   3.937   1.075 -0.3543 -0.3026 -0.4028
 3057SOL    HW1 9763   5.219   3.879   1.028 -0.5573  0.3120 -1.4614
 3057SOL    HW2 9764   5.204   4.020   1.082  0.0175 -0.6273  1.3097
 3058SOL     OW 9765   5.099   3.904   0.103  0.0651  0.1785 -0.4685
 3058SOL    HW1 9766   5.170   3.879   0.045  0.6807 -0.4165  0.5037
 3058SOL    HW2 9767   5.130   3.879   0.190 -1.2333  0.1492  0.0017
 3059SOL     OW 9768   6.371   3.827   2.824  0.5523 -0.1019  0.2539
 3059SOL    HW1 9769   6.408   3.787   2.903  0.1457 -0.0353  0.4841
 3059SOL    HW2 9770   6.277   3.809   2.830  0.5935 -0.5682 -0.5009
 3060SOL     OW 9771   4.955  -0.010   0.228 -0.0592 -0.3713 -0.0654
 3060SOL    HW1 9772   4.981   0.077   0.198 -0.7366 -0.3327 -0.5610
 3060SOL    HW2 9773   5.033  -0.064   0.217 -0.1809 -0.2755 -1.5571
 3061SOL     OW 9774   6.336   5.127   1.040  0.0732  0.8194  0.4765
 3061SOL    HW1 9775   6.318   5.051   1.095  3.2469 -0.2388  0.2880
 3061SOL    HW2 9776   6.392   5.183   1.094  4.3545 -0.8379 -1.7177
 3062SOL     OW 9777   2.218   3.897   1.713  0.1092  0.0891  0.5936
 3062SOL    HW1 9778   2.173   3.912   1.796 -0.0981 -0.5925  0.6083
 3062SOL    HW2 9779   2.185   3.966   1.655  3.4965  3.4830  2.2385
 3063SOL     OW 9780   5.189   4.143   3.311  0.2723 -0.4231  0.2050
 3063SOL    HW1 9781   5.154   4.106   3.230 -2.1610  0.1390  0.9158
 3063SOL    HW2 9782   5.204   4.235   3.290  0.8041 -0.5344  0.0746
 3064SOL     OW 9783   6.172   4.236   0.902  0.3242 -1.0101 -0.1080
 3064SOL    HW1 9784   6.181   4.325   0.865 -0.6184 -0.6439  0.5289
 3064SOL    HW2 9785   6.078   4.225   0.916  0.5629 -1.5990  1.0887
 3065SOL     OW 9786   3.539   0.218   3.087  0.3581  0.0464 -0.4181
 3065SOL    HW1 9787   3.595   0.211   3.165  1.5485 -2.5898 -1.3947
 3065SOL    HW2 9788   3.470   0.154   3.100  0.6137 -0.4826 -1.5527
 3066SOL     OW 9789   3.965   4.280   2.462 -0.6601 -0.6925  0.0673
 3066SOL    HW1 9790   3.956   4.369   2.496 -0.0771  0.0324 -1.5479
 3066SOL    HW2 9791   3.920   4.282   2.377 -1.0307 -2.0704  0.2019
 3067SOL     OW 9792   3.011   4.467   1.005  0.0377 -0.2858  0.3023
 3067SOL    HW1 9793   3.105   4.455   1.018  0.1914  1.4910  1.0790
 3067SOL    HW2 9794   2.978   4.495   1.090 -0.9591  0.3681 -0.2800
 3068SOL     OW 9795   4.934   4.263   2.742  0.3276  0.4695  0.1655
 3068SOL    HW1 9796   4.989   4.341   2.733  0.0433  0.5946 -0.5848
 3068SOL    HW2 9797   4.995   4.189   2.738  0.5283  0.6350  0.1900
 3069SOL     OW 9798   4.015   4.115   1.629 -0.5076  0.1869  0.0781
 3069SOL    HW1 9799   4.052   4.162   1.703  0.2936 -0.0405 -0.1694
 3069SOL    HW2 9800   3.969   4.183   1.578  0.9778  0.8070 -0.4978
 3070SOL     OW 9801   1.453   2.456   0.769 -0.0948 -0.0703 -0.1189
 3070SOL    HW1 9802   1.393   2.481   0.840 -0.2327 -0.4750 -0.0952
 3070SOL    HW2 9803   1.431   2.516   0.697  1.4162  1.7647  0.8391
 3071SOL     OW 9804   1.875   0.665   1.513 -0.0955  0.0812  0.0424
 3071SOL    HW1 9805   1.867   0.574   1.539 -2.4468 -0.4570 -2.1196
 3071SOL    HW2 9806   1.822   0.713   1.577  1.7526  0.1243  1.6330
 3072SOL     OW 9807   4.612   4.522   1.439  0.5903  0.3262 -0.4948
 3072SOL    HW1 9808   4.543   4.583   1.465  0.0225 -0.3478 -0.3938
 3072SOL    HW2 9809   4.609   4.524   1.343  1.5123  1.4891 -0.5288
 3073SOL     OW 9810   3.242   4.849   1.999  0.3573  0.3469 -0.8719
 3073SOL    HW1 9811   3.208   4.770   1.957  3.8080 -1.0333 -1.4151
 3073SOL    HW2 9812   3.311   4.818   2.058 -1.1389  2.6597  2.3923
 3074SOL     OW 9813   4.255   4.409   2.265 -0.2539 -0.3627 -0.2506
 3074SOL    HW1 9814   4.213   4.340   2.212  1.7299 -1.2965 -0.6987
 3074SOL    HW2 9815   4.262   4.370   2.352 -1.4186  0.2828  0.1480
 3075SOL     OW 9816   5.962   5.065   1.388 -0.1950  0.3245  0.5627
 3075SOL    HW1 9817   5.922   5.102   1.467 -0.9902  0.0446  0.3036
 3075SOL    HW2 9818   5.966   5.139   1.327  0.9342  0.6748  1.0468
 3076SOL     OW 9819   5.255   3.568   3.464  0.2311  0.5144 -0.2117
 3076SOL    HW1 9820   5.177   3.586   3.412  0.4184  0.5876 -0.4696
 3076SOL    HW2 9821   5.294   3.654   3.480  0.0012  0.5232  0.3260
 3077SOL     OW 9822   4.930   4.614   0.781 -0.0138  0.1293 -0.1960
 3077SOL    HW1 9823   4.877   4.675   0.730 -1.5035 -1.0932 -0.1673
 3077SOL    HW2 9824   4.958   4.665   0.858  0.3342  1.2962 -1.0655
 3078SOL     OW 9825   4.320   2.337   3.490 -0.0150  0.1736 -0.0748
 3078SOL    HW1 9826   4.373   2.404   3.532 -0.9554  0.3324  0.8923
 3078SOL    HW2 9827   4.359   2.254   3.518  0.4040  0.2955 -0.2880
 3079SOL     OW 9828   2.739   4.030   2.127  0.9364 -0.1879  0.1300
 3079SOL    HW1 9829   2.792   4.051   2.204  0.2417 -0.5411  0.7027
 3079SOL    HW2 9830   2.733   3.935   2.126  0.6512 -0.1693 -0.1690
 3080SOL     OW 9831   5.505   4.824   2.146 -0.3211  0.5452 -0.1104
 3080SOL    HW1 9832   5.468   4.741   2.115 -0.4131  0.6384 -0.2545
 3080SOL    HW2 9833   5.600   4.810   2.144 -0.3573 -0.1109  1.4295
 3081SOL     OW 9834   5.343   4.075   3.550 -0.2290  0.7030  0.1574
 3081SOL    HW1 9835   5.432   4.082   3.516 -0.5060 -0.2870 -0.8072
 3081SOL    HW2 9836   5.288   4.113   3.481 -0.6258  0.5607  0.3925
 3082SOL     OW 9837   6.244   3.907   2.035  0.0958 -0.3107  0.3083
 3082SOL    HW1 9838   6.334   3.919   2.005 -0.1420  1.1065  0.1163
 3082SOL    HW2 9839   6.203   3.857   1.964 -0.2486  2.3305 -1.4799
 3083SOL     OW 9840   0.180   0.164   2.981  0.6824  0.1288  0.1154
 3083SOL    HW1 9841   0.210   0.196   2.896 -0.5690 -0.9478 -0.7666
 3083SOL    HW2 9842   0.224   0.220   3.045  1.3882  1.1722 -1.2454
 3084SOL     OW 9843   2.501   4.570   1.800  0.9349  0.3955  0.0970
 3084SOL    HW1 9844   2.454   4.489   1.781 -0.2927  1.3254 -1.0549
 3084SOL    HW2 9845   2.510   4.570   1.895 -0.1656 -0.4990  0.2303
 3085SOL     OW 9846   5.380   2.555   0.072 -0.4176 -0.1469  0.2927
 3085SOL    HW1 9847   5.390   2.476   0.019  1.3780 -0.4031  0.9492
 3085SOL    HW2 9848   5.461   2.605   0.058 -0.3151  0.2391  1.9912
 3086SOL     OW 9849   6.476   2.637   1.879 -0.5138  0.3857  0.2059
 3086SOL    HW1 9850   6.459   2.668   1.968  2.1427  0.1108  0.8915
 3086SOL    HW2 9851   6.520   2.552   1.891  0.9600  0.8809 -1.2732
 3087SOL     OW 9852   5.606   4.232   0.185  0.8915  0.0411 -0.3424
 3087SOL    HW1 9853   5.517   4.264   0.174  0.6450 -0.2951  0.5708
 3087SOL    HW2 9854   5.624   4.183   0.105  1.1683  2.1389 -1.6409
 3088SOL     OW 9855   5.291   0.578   3.257  0.2432  0.0417  0.0589
 3088SOL    HW1 9856   5.381   0.612   3.258  0.9695 -1.6411 -1.9411
 3088SOL    HW2 9857   5.253   0.609   3.339  1.8177  2.9488 -0.1802
 3089SOL     OW 9858   4.174  -0.012   0.261 -0.0483  0.0010 -0.0107
 3089SOL    HW1 9859   4.177   0.043   0.182 -0.9206 -0.3562 -0.3033
 3089SOL    HW2 9860   4.122  -0.087   0.235  1.8056 -1.4089  0.1196
 3090SOL     OW 9861   5.834   0.263   1.748 -0.0796  0.0184 -0.2895
 3090SOL    HW1 9862   5.827   0.171   1.723  1.4250 -0.6943  1.6791
 3090SOL    HW2 9863   5.928   0.283   1.741 -0.0745  0.7449  1.3025
 3091SOL     OW 9864   4.191   3.891   1.542  0.1098 -0.9078 -0.1804
 3091SOL    HW1 9865   4.185   3.891   1.447  0.4122 -1.5721 -0.2024
 3091SOL    HW2 9866   4.145   3.971   1.569  1.1302 -0.0388 -0.9398
 3092SOL     OW 9867   5.124   4.788   0.266 -0.6056  0.0799  0.1825
 3092SOL    HW1 9868   5.147   4.879   0.287  0.5769 -0.4089  1.1317
 3092SOL    HW2 9869   5.208   4.746   0.249 -1.1443 -0.8640 -0.1890
 3093SOL     OW 9870   3.923   2.414   0.358 -0.6019 -0.2339  0.4901
 3093SOL    HW1 9871   3.917   2.467   0.279 -0.7481 -1.0888 -0.0915
 3093SOL    HW2 9872   3.954   2.328   0.327  0.6149 -0.2077  1.5252
 3094SOL     OW 9873   3.562   4.543   1.357 -0.0115 -0.4534 -0.0222
 3094SOL    HW1 9874   3.608   4.529   1.275 -0.4151 -2.4652  0.0431
 3094SOL    HW2 9875   3.590   4.471   1.413 -1.6732 -0.5838  0.7084
 3095SOL     OW 9876   7.206   5.111   1.417  0.5857 -0.0705  0.2279
 3095SOL    HW1 9877   7.172   5.166   1.488  0.5932 -1.1384  1.0884
 3095SOL    HW2 9878   7.254   5.041   1.462  0.1331 -1.0806 -0.8205
 3096SOL     OW 9879   4.865   0.310   0.831 -0.0973  0.5019  0.0885
 3096SOL    HW1 9880   4.779   0.328   0.792  0.2110 -0.1760 -0.9561
 3096SOL    HW2 9881   4.846   0.249   0.903 -0.3715 -0.9431 -1.1404
 3097SOL     OW 9882   3.866   1.078   1.996 -0.3413 -0.1807 -0.1320
 3097SOL    HW1 9883   3.857   1.083   2.091 -0.8583 -0.7446 -0.1437
 3097SOL    HW2 9884   3.830   0.992   1.973 -0.8751  0.2397 -0.9058
 3098SOL     OW 9885   0.004   4.898   1.834  0.2134 -0.5937 -0.0560
 3098SOL    HW1 9886   0.077   4.909   1.895  2.4984 -1.0821 -2.4974
 3098SOL    HW2 9887  -0.019   4.806   1.840  1.1217 -0.8751 -0.5700
 3099SOL     OW 9888   5.342   3.502   0.653  0.4588  0.3811 -0.0974
 3099SOL    HW1 9889   5.404   3.430   0.644  0.5387  0.5470 -0.9682
 3099SOL    HW2 9890   5.344   3.547   0.569 -0.2069  0.9093  0.1504
 3100SOL     OW 9891   4.431   3.267   0.721 -0.8374  0.3174 -0.0034
 3100SOL    HW1 9892   4.486   3.319   0.663 -0.9833  1.1207  0.5561
 3100SOL    HW2 9893   4.492   3.207   0.764 -0.8987 -1.1255 -1.8366
 3101SOL     OW 9894   5.109   4.526   0.003 -0.5569 -0.2658 -0.7548
 3101SOL    HW1 9895   5.088   4.442   0.044 -1.7714 -0.0555 -0.8893
 3101SOL    HW2 9896   5.167   4.569   0.065 -1.0473 -0.6324 -0.0218
 3102SOL     OW 9897   4.243   4.768   0.148 -0.2911 -0.1688 -0.1481
 3102SOL    HW1 9898   4.270   4.848   0.104 -1.0684 -0.4357 -1.1401
 3102SOL    HW2 9899   4.324   4.729   0.179  0.2527  0.1829 -1.0886
 3103SOL     OW 9900   1.890   1.109   3.422 -0.0722 -0.3028 -0.4046
 3103SOL    HW1 9901   1.966   1.051   3.424  0.1717 -0.0006 -0.8323
 3103SOL    HW2 9902   1.923   1.191   3.384 -0.5225 -0.0452 -0.2425
 3104SOL     OW 9903   3.195   4.311   1.474  0.2872  0.1601 -0.4834
 3104SOL    HW1 9904   3.190   4.374   1.402 -1.8255  0.9710  0.2924
 3104SOL    HW2 9905   3.283   4.324   1.510  0.2587  2.0185 -0.9441
 3105SOL     OW 9906   3.276   3.622   2.726 -0.1779  0.4181 -0.0016
 3105SOL    HW1 9907   3.270   3.530   2.753 -2.9441  0.2137 -1.0534
 3105SOL    HW2 9908   3.316   3.666   2.801  0.1966 -1.4426  0.9640
 3106SOL     OW 9909   5.418   4.225   3.058 -0.1762 -0.1671 -0.7419
 3106SOL    HW1 9910   5.333   4.241   3.016  0.1199  1.2521 -0.8491
 3106SOL    HW2 9911   5.429   4.299   3.118  1.2211 -0.0429 -1.1246
 3107SOL     OW 9912   3.718   2.366   0.546  0.6314  0.0200  0.0087
 3107SOL    HW1 9913   3.752   2.434   0.604 -0.4838  1.9886 -1.5474
 3107SOL    HW2 9914   3.778   2.365   0.472 -0.7350  1.1499 -1.1660
 3108SOL     OW 9915   3.182   0.714   0.958 -0.2501  0.1966 -0.3913
 3108SOL    HW1 9916   3.227   0.701   0.875  0.9464  0.9258  0.1001
 3108SOL    HW2 9917   3.133   0.796   0.947  0.3592  0.5943 -0.2157
 3109SOL     OW 9918   3.589   4.902   1.931  0.0629  0.1311  0.3131
 3109SOL    HW1 9919   3.630   4.816   1.943 -0.4596  0.0383  1.6077
 3109SOL    HW2 9920   3.577   4.935   2.020 -1.6746  0.6168 -0.0612
 3110SOL     OW 9921   5.921   4.175   1.052 -0.1473 -0.0486  0.2254
 3110SOL    HW1 9922   5.940   4.268   1.065 -0.4829 -0.1639  1.8450
 3110SOL    HW2 9923   5.826   4.172   1.036 -0.1046 -0.0951 -0.0183
 3111SOL     OW 9924   6.283   5.122   1.621 -0.5051  0.3461 -0.3153
 3111SOL    HW1 9925   6.377   5.141   1.620 -0.5956  0.9883  0.9934
 3111SOL    HW2 9926   6.249   5.162   1.541  0.1522  1.2148 -0.1728
 3112SOL     OW 9927   5.158   4.305   1.946  0.1716  0.2336  0.1325
 3112SOL    HW1 9928   5.110   4.338   1.870 -0.5876  0.0680  0.5339
 3112SOL    HW2 9929   5.243   4.278   1.911 -0.6581 -1.1416 -0.9197
 3113SOL     OW 9930   4.514   5.420   2.582  0.1400 -0.4378 -0.6506
 3113SOL    HW1 9931   4.500   5.348   2.643 -0.3478  0.6076  0.5141
 3113SOL    HW2 9932   4.556   5.488   2.634 -0.9110  0.7454 -1.2689
 3114SOL     OW 9933   4.563   3.108   0.273  0.7156  0.1275  0.4722
 3114SOL    HW1 9934   4.583   3.196   0.240 -0.2041  0.2363  0.1843
 3114SOL    HW2 9935   4.489   3.121   0.332  1.1615 -0.3329  1.1473
 3115SOL     OW 9936   6.855   4.651   1.641  0.2234 -0.1804 -0.0799
 3115SOL    HW1 9937   6.900   4.578   1.684  0.1992 -0.3956 -0.4153
 3115SOL    HW2 9938   6.826   4.615   1.557  2.1698  0.8442 -1.2500
 3116SOL     OW 9939   6.207   3.566   1.105 -0.2004  0.1071 -0.3103
 3116SOL    HW1 9940   6.194   3.632   1.173  0.8467 -0.6747  0.6905
 3116SOL    HW2 9941   6.267   3.502   1.145  0.5787 -0.2938 -2.0186
 3117SOL     OW 9942   4.659   4.773   0.705 -0.2595  0.1514 -0.0173
 3117SOL    HW1 9943   4.611   4.731   0.777 -1.2233  1.5826  0.2321
 3117SOL    HW2 9944   4.647   4.714   0.631 -0.6417 -0.5424  0.5736
 3118SOL     OW 9945   3.681   4.269   0.845 -0.4451  0.0519  0.3490
 3118SOL    HW1 9946   3.720   4.340   0.896  2.0230 -0.0541 -1.2035
 3118SOL    HW2 9947   3.587   4.281   0.855 -0.1019  2.8819  1.0333
 3119SOL     OW 9948   2.775   4.610   3.397 -0.3102  0.6937  0.1232
 3119SOL    HW1 9949   2.855   4.662   3.390 -0.1987  0.6380  0.9470
 3119SOL    HW2 9950   2.805   4.520   3.405 -0.4948  0.5295 -0.8541
 3120SOL     OW 9951   4.726   4.504   2.798  0.1942  0.4825  0.1620
 3120SOL    HW1 9952   4.641   4.460   2.799 -0.8836  2.3915  2.5667
 3120SOL    HW2 9953   4.789   4.432   2.794 -1.4782 -1.1437  1.0178
 3121SOL     OW 9954   4.411   4.326   1.730 -0.0968  0.3628 -0.4995
 3121SOL    HW1 9955   4.350   4.399   1.726  0.3939  0.7407 -2.8689
 3121SOL    HW2 9956   4.380   4.265   1.663 -0.6869 -1.8382  1.6335
 3122SOL     OW 9957   3.971   3.701   2.340  0.4148  0.3789  0.1259
 3122SOL    HW1 9958   4.004   3.684   2.251 -1.6107  0.5025 -0.7118
 3122SOL    HW2 9959   3.880   3.674   2.337  0.0224  1.3551  1.9007
 3123SOL     OW 9960   3.966   4.440   1.821 -0.3276  0.1889  0.0406
 3123SOL    HW1 9961   3.956   4.468   1.912 -0.0767  0.3883  0.0086
 3123SOL    HW2 9962   3.947   4.519   1.770  2.3354  0.9029 -0.0087
 3124SOL     OW 9963   5.750   5.061   0.361 -0.0628 -0.4725  0.1508
 3124SOL    HW1 9964   5.802   5.129   0.404  0.0938 -0.2620 -0.3655
 3124SOL    HW2 9965   5.768   4.982   0.411  0.9924 -0.4640 -0.1949
 3125SOL     OW 9966   3.945   4.892   1.404  0.1457  0.4555 -0.4081
 3125SOL    HW1 9967   3.910   4.855   1.485 -0.4110  2.6168  0.4355
 3125SOL    HW2 9968   3.876   4.875   1.339 -0.3408  0.4861  0.0855
 3126SOL     OW 9969   6.113   3.788   1.818 -0.3882  0.4091 -0.5920
 3126SOL    HW1 9970   6.084   3.862   1.765 -1.1549  0.6120  0.0868
 3126SOL    HW2 9971   6.109   3.713   1.759 -0.9840  0.6724 -0.8942
 3127SOL     OW 9972   5.236   0.104   1.652  0.1181 -0.7202 -0.6879
 3127SOL    HW1 9973   5.250   0.130   1.561  0.3194  1.7634 -0.0274
 3127SOL    HW2 9974   5.320   0.119   1.695 -0.1349 -1.3068  0.0382
 3128SOL     OW 9975   4.730   0.181   0.280 -0.0275 -0.1406 -0.2192
 3128SOL    HW1 9976   4.794   0.112   0.264 -0.3351 -0.8711  1.4495
 3128SOL    HW2 9977   4.770   0.235   0.348 -0.7993 -0.1254  0.2414
 3129SOL     OW 9978   4.615   3.622   3.082 -0.2127  0.3523  0.3472
 3129SOL    HW1 9979   4.706   3.653   3.081  0.4082 -1.1371  2.7889
 3129SOL    HW2 9980   4.615   3.551   3.146 -2.5403 -1.5446 -1.5804
 3130SOL     OW 9981   6.296   4.266   3.253 -0.0855  0.4131 -0.8860
 3130SOL    HW1 9982   6.202   4.281   3.262 -0.3232 -1.1332 -0.4706
 3130SOL    HW2 9983   6.336   4.344   3.291 -1.1889  0.4433  0.3036
 3131SOL     OW 9984   5.768   2.882   0.232  0.1040 -0.0149  0.5101
 3131SOL    HW1 9985   5.797   2.830   0.306 -0.0240  1.1597  1.4156
 3131SOL    HW2 9986   5.750   2.968   0.269 -0.1536  0.5412 -0.8526
 3132SOL     OW 9987   7.185   3.890   0.293  0.4170 -0.1110 -0.3917
 3132SOL    HW1 9988   7.256   3.837   0.256 -0.3074 -1.2407 -0.2263
 3132SOL    HW2 9989   7.111   3.830   0.298  0.1580  0.3180  1.7858
 3133SOL     OW 9990   4.451   4.248   3.247 -0.5691  0.1789  0.6682
 3133SOL    HW1 9991   4.526   4.203   3.285 -2.2235 -1.0780  2.6325
 3133SOL    HW2 9992   4.422   4.309   3.315 -1.1536  0.8945 -0.1886
 3134SOL     OW 9993   3.525   5.299   2.557  0.0326 -0.1801 -0.1307
 3134SOL    HW1 9994   3.549   5.259   2.473 -0.8680 -1.0884  0.0181
 3134SOL    HW2 9995   3.570   5.246   2.622  0.0309 -0.0192  0.0010
 3135SOL     OW 9996   2.585   3.774   1.887  0.2692 -0.1568 -0.4169
 3135SOL    HW1 9997   2.649   3.755   1.955  1.2524 -2.3980 -1.8406
 3135SOL    HW2 9998   2.620   3.851   1.842  1.6202 -0.9091 -0.7050
 3136SOL     OW 9999   4.107   2.216   0.172  0.3519  0.2391  0.0202
 3136SOL    HW110000   4.195   2.179   0.185  1.5005  1.9467 -2.1244
 3136SOL    HW210001   4.122   2.310   0.165 -1.7203  0.5923 -0.1679
 3137SOL     OW10002   4.211   3.623   3.133  0.3144  0.3746  0.8598
 3137SOL    HW110003   4.268   3.675   3.077 -0.6552  1.9529  1.2650
 3137SOL    HW210004   4.165   3.564   3.074  0.7539  0.6385  0.2535
 3138SOL     OW10005   3.609   5.057   2.649  0.2015  0.3857  0.1073
 3138SOL    HW110006   3.602   4.972   2.608 -1.6869  1.0620 -1.0990
 3138SOL    HW210007   3.553   5.051   2.727  1.3875  0.0448  0.9640
 3139SOL     OW10008   4.907   1.124   2.751 -0.0416  0.0038 -0.2159
 3139SOL    HW110009   4.862   1.125   2.667  0.5332  0.2503 -0.5309
 3139SOL    HW210010   4.838   1.133   2.816 -0.7297 -2.3410 -0.5427
 3140SOL     OW10011   3.474   4.064   2.353 -0.0411 -0.2045  0.4713
 3140SOL    HW110012   3.444   3.973   2.347 -0.8987  0.1614 -3.4059
 3140SOL    HW210013   3.565   4.058   2.383  0.4656 -2.5686 -1.2457
 3141SOL     OW10014   2.901   4.514   2.226  0.1178  0.3455  0.4009
 3141SOL    HW110015   2.830   4.491   2.166  0.2945 -1.1475  0.7137
 3141SOL    HW210016   2.871   4.593   2.271 -0.2886  1.1268 -1.1870
 3142SOL     OW10017   2.985   3.824   0.441 -0.0088 -0.1071  0.1414
 3142SOL    HW110018   2.968   3.854   0.352 -0.2812  0.8436  0.5046
 3142SOL    HW210019   2.943   3.739   0.447 -2.9755  1.2594  0.3873
 3143SOL     OW10020   3.478   4.111   2.081 -0.4327  0.5358 -0.4174
 3143SOL    HW110021   3.523   4.028   2.068  2.3118  1.7888  0.3361
 3143SOL    HW210022   3.462   4.116   2.175 -1.1673  0.6152 -0.5363
 3144SOL     OW10023   3.402   4.191   0.401 -0.5995  0.1021  0.0919
 3144SOL    HW110024   3.316   4.169   0.367  0.6448 -2.9030 -1.5639
 3144SOL    HW210025   3.387   4.260   0.465 -3.8299  1.9638 -2.4082
 3145SOL     OW10026   4.081   4.472   1.100 -0.0073 -0.2885  0.6690
 3145SOL    HW110027   4.106   4.478   1.192  0.6535  3.6466  0.3992
 3145SOL    HW210028   4.164   4.463   1.053 -0.2429 -0.8963  0.3542
 3146SOL     OW10029   3.650   1.159   3.281 -0.7837  0.3639 -0.6457
 3146SOL    HW110030   3.652   1.187   3.190  1.8793  0.6166 -0.5959
 3146SOL    HW210031   3.722   1.097   3.289  0.2777  1.7426  1.6699
 3147SOL     OW10032   4.582   4.369   2.449 -0.1121 -0.0983 -0.2382
 3147SOL    HW110033   4.591   4.336   2.538  1.6297 -0.9812 -0.6934
 3147SOL    HW210034   4.597   4.292   2.393 -1.6890  0.3131 -1.3246
 3148SOL     OW10035   3.619   0.428   2.178 -0.0024  1.1779  0.3897
 3148SOL    HW110036   3.599   0.490   2.108 -1.5961 -1.0066 -1.2827
 3148SOL    HW210037   3.540   0.427   2.233 -0.3521  0.1085 -0.0913
 3149SOL     OW10038   3.708   3.906   0.448  0.2864 -0.3203 -0.0676
 3149SOL    HW110039   3.733   3.943   0.364 -1.1859 -0.4487 -0.6053
 3149SOL    HW210040   3.788   3.869   0.484  0.9897 -0.0117 -1.2852
 3150SOL     OW10041   3.645   2.163   3.308  0.1678 -0.1909  0.2309
 3150SOL    HW110042   3.721   2.121   3.269 -0.2263  0.5689 -1.4674
 3150SOL    HW210043   3.678   2.248   3.339  0.3004 -0.4352  0.7584
 3151SOL     OW10044   6.919   4.748   2.641  0.5744  0.3794 -0.2043
 3151SOL    HW110045   6.998   4.707   2.606 -0.4330 -1.6302 -0.2515
 3151SOL    HW210046   6.912   4.716   2.731 -0.2359  0.4656 -0.2282
 3152SOL     OW10047   3.989   2.627   2.846 -1.0157  0.8028  0.3409
 3152SOL    HW110048   3.948   2.569   2.910 -1.3431  1.1333  0.4344
 3152SOL    HW210049   4.080   2.597   2.841 -0.7804  1.2579  1.5320
 3153SOL     OW10050   2.564   4.945   1.615 -0.5784 -0.0154 -0.6404
 3153SOL    HW110051   2.583   5.039   1.623 -0.0728 -0.0927 -0.9010
 3153SOL    HW210052   2.648   4.905   1.593  0.0209 -1.0223  2.9682
 3154SOL     OW10053   4.732   0.443   2.323 -1.1500 -0.4566 -0.0034
 3154SOL    HW110054   4.754   0.363   2.276 -0.5501 -0.1094 -0.3390
 3154SOL    HW210055   4.739   0.420   2.416 -0.8530 -0.7639 -0.1010
 3155SOL     OW10056   4.971   5.067   0.118 -0.0824  0.2185  0.0093
 3155SOL    HW110057   5.005   5.146   0.077  0.7307 -0.3662 -0.4844
 3155SOL    HW210058   4.898   5.097   0.172  0.9090  1.4554  0.7181
 3156SOL     OW10059   4.939   3.845   2.600 -0.2154  0.5098  0.0186
 3156SOL    HW110060   5.008   3.779   2.592 -0.4464  0.3300 -0.5599
 3156SOL    HW210061   4.894   3.842   2.516  0.1660  1.8552 -0.2509
 3157SOL     OW10062   4.504   0.288   0.413  0.0396 -0.5950  0.6637
 3157SOL    HW110063   4.425   0.315   0.367 -0.0491 -0.2793  1.0048
 3157SOL    HW210064   4.565   0.263   0.343  0.2392  0.7891  0.3219
 3158SOL     OW10065   4.569   0.321   0.707  0.6412  0.7222 -0.1537
 3158SOL    HW110066   4.546   0.349   0.619 -1.7885 -1.4342 -0.3558
 3158SOL    HW210067   4.612   0.236   0.695  1.2998  0.9209  0.6905
 3159SOL     OW10068   3.284   4.020   1.920  0.1455 -0.9501  0.4345
 3159SOL    HW110069   3.266   4.078   1.846 -0.3876 -1.7941 -0.1155
 3159SOL    HW210070   3.348   4.068   1.972 -1.4996  0.8913  0.9168
 3160SOL     OW10071   5.185   1.985   0.890 -0.3164 -0.2714 -0.2031
 3160SOL    HW110072   5.140   2.049   0.836 -1.0174  0.1195  0.8092
 3160SOL    HW210073   5.118   1.919   0.909 -0.4577  0.2510  1.2139
 3161SOL     OW10074   5.503   0.187   1.741 -0.4933  0.6812 -0.3505
 3161SOL    HW110075   5.516   0.170   1.835  0.4475 -1.7828 -0.8412
 3161SOL    HW210076   5.570   0.252   1.719  1.7214 -1.3092  0.0733
 3162SOL     OW10077   6.122   4.667   0.489  0.3374  0.1788 -1.0941
 3162SOL    HW110078   6.111   4.583   0.533  1.3823  0.8238  0.4869
 3162SOL    HW210079   6.210   4.695   0.512 -0.0313  1.7509 -1.4853
 3163SOL     OW10080   2.427   4.371   0.118  0.3841  0.1587 -0.7230
 3163SOL    HW110081   2.437   4.308   0.190  1.3833  0.7448 -0.3258
 3163SOL    HW210082   2.459   4.454   0.153  2.1828  0.1765 -2.2206
 3164SOL     OW10083   5.665   5.152   0.762 -0.1758 -0.2208 -0.2087
 3164SOL    HW110084   5.717   5.231   0.773 -0.3305  0.0278 -1.1750
 3164SOL    HW210085   5.574   5.182   0.768 -0.2666 -0.0945 -1.8588
 3165SOL     OW10086   4.770   1.010   3.518  0.0955  0.2271  0.4503
 3165SOL    HW110087   4.763   1.080   3.584 -0.7630 -0.5029  1.1664
 3165SOL    HW210088   4.705   1.033   3.452 -1.1247 -0.5582  1.3458
 3166SOL     OW10089   3.717   2.400   3.441  0.3380  0.1505  0.1476
 3166SOL    HW110090   3.659   2.473   3.459  0.4835  0.2003  0.4165
 3166SOL    HW210091   3.801   2.425   3.480  1.0598  0.8536 -1.7102
 3167SOL     OW10092   1.939   4.053   0.545  0.2005 -0.0877 -0.0854
 3167SOL    HW110093   1.979   3.982   0.494  0.1537 -0.8660  0.9326
 3167SOL    HW210094   1.845   4.042   0.532  0.1839 -0.3682  0.2864
 3168SOL     OW10095   0.070   3.060   0.071 -0.3542 -0.2677 -0.5905
 3168SOL    HW110096   0.014   3.062  -0.007  0.2536 -0.1982 -1.0288
 3168SOL    HW210097   0.027   3.119   0.133  0.5750  1.8397 -1.8469
 3169SOL     OW10098   4.288   3.167   2.285 -0.0301 -0.2099  0.5722
 3169SOL    HW110099   4.245   3.122   2.212  2.1806  0.7174 -1.4513
 3169SOL    HW210100   4.216   3.209   2.333 -1.6633 -1.7548 -0.3968
 3170SOL     OW10101   3.571   4.621   0.181  0.0708 -0.3158 -0.3692
 3170SOL    HW110102   3.647   4.602   0.236  1.0106  2.1099 -0.6938
 3170SOL    HW210103   3.586   4.571   0.101  0.6944 -0.8146  0.0560
 3171SOL     OW10104   4.620   1.097   1.573 -0.1301  0.0905 -0.0116
 3171SOL    HW110105   4.612   1.174   1.629  2.5432 -0.5883  1.4926
 3171SOL    HW210106   4.691   1.119   1.513 -0.1418 -0.7593 -0.3454
 3172SOL     OW10107   3.418   4.666   2.134  0.1105 -0.2806 -0.2603
 3172SOL    HW110108   3.364   4.599   2.174 -1.3216  0.5110 -0.8113
 3172SOL    HW210109   3.487   4.617   2.089 -0.7617 -1.3703 -0.4566
 3173SOL     OW10110   4.113   3.150   0.469  0.4614  0.5518  0.0779
 3173SOL    HW110111   4.031   3.140   0.518  0.1626 -1.8363 -0.7878
 3173SOL    HW210112   4.093   3.215   0.402 -0.1016  1.4382  1.0694
 3174SOL     OW10113   3.066   2.374   2.259  0.3344 -0.2446  0.4947
 3174SOL    HW110114   3.124   2.360   2.334  0.5302 -2.0671  0.0546
 3174SOL    HW210115   3.124   2.370   2.183 -0.0205  0.4709  0.1758
 3175SOL     OW10116   5.882   0.831   0.436 -0.2647 -0.2035  0.1023
 3175SOL    HW110117   5.950   0.840   0.369 -1.4735 -0.5687 -1.2091
 3175SOL    HW210118   5.889   0.912   0.488  0.0285  0.5671 -1.0993
 3176SOL     OW10119   6.027   4.447   0.615  0.4689 -0.3970 -0.1103
 3176SOL    HW110120   6.069   4.364   0.636 -0.7915 -1.0620 -0.1135
 3176SOL    HW210121   5.981   4.472   0.695  0.8889  0.3477 -0.0876
 3177SOL     OW10122   4.640   0.972   1.286  0.2932  0.3515  0.5235
 3177SOL    HW110123   4.568   1.032   1.308  1.7467  1.6614  1.9372
 3177SOL    HW210124   4.653   0.921   1.366  1.5471  0.8084  0.6279
 3178SOL     OW10125   5.283   0.053   2.340  0.2473 -0.4358 -0.4847
 3178SOL    HW110126   5.221   0.011   2.280  0.8077 -3.2879  0.7720
 3178SOL    HW210127   5.369   0.031   2.304  0.5666 -1.2516  0.7236
 3179SOL     OW10128   5.026   4.310   1.118  0.2645 -0.5732 -0.1877
 3179SOL    HW110129   4.970   4.301   1.196  1.8241 -0.9356  0.9272
 3179SOL    HW210130   4.964   4.312   1.045 -1.2423 -0.3137  1.0408
 3180SOL     OW10131   3.807   3.952   1.802  0.4797 -0.6044 -0.4404
 3180SOL    HW110132   3.845   4.038   1.821  1.0104 -0.6840 -1.0819
 3180SOL    HW210133   3.880   3.891   1.817 -0.8552 -1.5049  4.0852
 3181SOL     OW10134   4.658   0.513   2.834  0.1059  0.5549 -0.0355
 3181SOL    HW110135   4.585   0.469   2.877  0.8310 -0.6707  0.0161
 3181SOL    HW210136   4.705   0.556   2.906  1.5610 -1.8461  0.5950
 3182SOL     OW10137   4.242   4.003   3.253  0.2503 -0.0365 -0.2917
 3182SOL    HW110138   4.256   4.067   3.322  1.5164  0.3777 -0.9020
 3182SOL    HW210139   4.164   4.034   3.207 -1.2444 -0.8709  1.5091
 3183SOL     OW10140   3.351   5.169   0.404  0.2370  1.2016 -0.0131
 3183SOL    HW110141   3.334   5.261   0.421  1.2959  1.4298 -0.1384
 3183SOL    HW210142   3.404   5.168   0.324 -0.8214  0.4056 -0.7402
 3184SOL     OW10143   4.139   3.337   2.485 -0.0269  0.5274  0.5148
 3184SOL    HW110144   4.058   3.387   2.474 -1.0921 -1.4477 -1.2729
 3184SOL    HW210145   4.122   3.279   2.560 -0.1007  0.4207  0.4156
 3185SOL     OW10146   3.572   0.838   1.529  0.0606 -0.5148 -0.2253
 3185SOL    HW110147   3.523   0.918   1.508 -1.6941 -1.5243 -0.1825
 3185SOL    HW210148   3.510   0.767   1.512  1.6560 -1.8991 -0.5124
 3186SOL     OW10149   3.836   4.002   2.239 -0.1511  0.1735  0.6877
 3186SOL    HW110150   3.824   3.979   2.332  0.1327  0.7461  0.8676
 3186SOL    HW210151   3.930   4.011   2.228 -0.2611  1.5076  0.6905
 3187SOL     OW10152   5.297   3.858   2.765  0.6506  0.5903  0.3856
 3187SOL    HW110153   5.239   3.809   2.707  1.0081  0.4858  0.1067
 3187SOL    HW210154   5.304   3.803   2.843 -0.5049  1.1347  0.8835
 3188SOL     OW10155   3.940   1.659   3.182  0.2566  0.4101  0.0049
 3188SOL    HW110156   3.864   1.699   3.140 -1.0394 -0.6562  1.2412
 3188SOL    HW210157   4.008   1.726   3.176 -0.0116  0.5695 -3.1712
 3189SOL     OW10158   4.541   3.127   1.563 -0.2517  0.5891  0.7251
 3189SOL    HW110159   4.519   3.043   1.522 -0.3090  1.5799 -1.4153
 3189SOL    HW210160   4.457   3.164   1.590 -0.2980  0.3385  0.9363
 3190SOL     OW10161   3.881   3.629   2.101 -0.2987  0.5102 -0.4592
 3190SOL    HW110162   3.903   3.660   2.013 -1.3523  1.7251 -0.3182
 3190SOL    HW210163   3.933   3.549   2.111  1.1197  1.2456 -1.5342
 3191SOL     OW10164   5.244   3.239   1.865 -0.7395 -0.3585  0.0980
 3191SOL    HW110165   5.257   3.319   1.814  0.2081 -0.9150 -0.5536
 3191SOL    HW210166   5.169   3.196   1.824 -0.8287 -0.1447  0.0312
 3192SOL     OW10167   6.081   0.158   0.251  0.1983  0.3260  0.5302
 3192SOL    HW110168   6.112   0.084   0.302  0.1473  0.5316  0.8604
 3192SOL    HW210169   6.006   0.192   0.300  1.5538  1.9606  1.5594
 3193SOL     OW10170   5.483   2.288   0.597  0.5437 -0.1483 -0.2703
 3193SOL    HW110171   5.491   2.239   0.514  1.1503 -1.7811  0.7065
 3193SOL    HW210172   5.491   2.221   0.665 -1.9812  0.8622  1.1293
 3194SOL     OW10173   6.507   4.631   2.730  0.3723  0.0149  0.0794
 3194SOL    HW110174   6.489   4.658   2.820 -1.2245 -0.9553  0.0835
 3194SOL    HW210175   6.429   4.582   2.703  0.7242  0.4572 -1.9109
 3195SOL     OW10176   4.046   4.828   1.713  0.1540  0.2519  0.1747
 3195SOL    HW110177   4.111   4.883   1.669  1.0110 -2.0797 -1.6883
 3195SOL    HW210178   4.089   4.798   1.793  0.5300  0.4841  0.0602
 3196SOL     OW10179   5.218   4.298   2.887  0.3568  0.5355  0.0851
 3196SOL    HW110180   5.180   4.234   2.825  0.0803  0.6403  0.1447
 3196SOL    HW210181   5.143   4.328   2.938  0.3936  1.3144 -0.3061
 3197SOL     OW10182   4.044   3.800   0.824  0.0388 -0.0782 -0.3229
 3197SOL    HW110183   3.959   3.767   0.794  0.0717 -0.0879 -0.4042
 3197SOL    HW210184   4.051   3.768   0.914  0.4418 -0.9949 -0.6637
 3198SOL     OW10185   3.859   2.767   0.886  0.2709 -0.4554  0.4367
 3198SOL    HW110186   3.925   2.834   0.905  1.2930 -1.3196  0.0329
 3198SOL    HW210187   3.775   2.809   0.905  0.9392  0.6654  0.9660
 3199SOL     OW10188   5.864   3.029   1.438  0.4182  0.1810  0.2524
 3199SOL    HW110189   5.910   3.104   1.476  2.0270 -0.1357 -0.9561
 3199SOL    HW210190   5.799   3.068   1.380 -1.4151  0.6449  2.5196
 3200SOL     OW10191   4.136   3.784   0.284  0.5139  0.2925  0.4945
 3200SOL    HW110192   4.075   3.719   0.250  0.6874  1.4836 -2.3438
 3200SOL    HW210193   4.223   3.747   0.265  0.6130  0.9011 -0.3050
 3201SOL     OW10194   3.632   4.225   0.186  0.0999 -0.2819 -0.0789
 3201SOL    HW110195   3.647   4.188   0.273 -1.2783  1.6584  1.0677
 3201SOL    HW210196   3.537   4.231   0.179  0.2252  0.6399 -1.2308
 3202SOL     OW10197   4.734   3.003   0.093  0.1833 -0.5758  0.2882
 3202SOL    HW110198   4.676   2.994   0.168 -0.2349  1.5582  0.2988
 3202SOL    HW210199   4.689   2.956   0.022 -0.7072 -0.4345  0.7439
 3203SOL     OW10200   2.637   0.936   2.929 -0.1039  0.5923  0.0150
 3203SOL    HW110201   2.609   0.919   2.840 -1.0959 -1.4605  0.6670
 3203SOL    HW210202   2.566   0.987   2.968  0.7001  2.2157 -0.5561
 3204SOL     OW10203   6.096   5.170   2.482  1.0201  0.0299  0.2339
 3204SOL    HW110204   6.137   5.109   2.421  0.1650 -0.7255  0.3835
 3204SOL    HW210205   6.114   5.257   2.446  0.1093 -0.4149 -1.3602
 3205SOL     OW10206   5.458   4.439   2.848 -0.4534  0.0115  0.0375
 3205SOL    HW110207   5.423   4.359   2.888  0.5655 -0.4749 -0.0060
 3205SOL    HW210208   5.430   4.434   2.757 -1.0818  0.1178  0.2204
 3206SOL     OW10209   4.140   4.470   3.196  0.4014  0.3773  0.7445
 3206SOL    HW110210   4.131   4.399   3.259  0.1497 -0.1780  0.1002
 3206SOL    HW210211   4.122   4.549   3.246  0.2377 -0.0503  1.3732
 3207SOL     OW10212   4.596   3.503   2.292  0.0892 -0.1950  0.0043
 3207SOL    HW110213   4.547   3.478   2.370  0.3458  0.5381  0.4086
 3207SOL    HW210214   4.550   3.460   2.220 -1.4252  0.8349  0.3153
 3208SOL     OW10215   2.730   4.354   3.147 -0.1832  0.2482  0.0034
 3208SOL    HW110216   2.765   4.412   3.078 -1.1062  0.2773 -0.4672
 3208SOL    HW210217   2.794   4.359   3.218 -0.9259  3.0481  0.5965
 3209SOL     OW10218   4.307   5.119   2.535  0.2231 -0.4589  0.3733
 3209SOL    HW110219   4.385   5.109   2.481  0.9965  0.8877  1.1923
 3209SOL    HW210220   4.325   5.068   2.614  0.8422  0.8890  1.1226
 3210SOL     OW10221   5.053   0.871   2.363  0.2976  0.0017  0.4456
 3210SOL    HW110222   5.031   0.813   2.436  1.1674 -1.4624 -0.3863
 3210SOL    HW210223   5.055   0.812   2.287  0.3709  1.3029 -0.5893
 3211SOL     OW10224   5.636   3.880   2.000  0.5631  0.1585 -0.8832
 3211SOL    HW110225   5.551   3.847   1.971  0.9043 -0.0795 -1.6188
 3211SOL    HW210226   5.616   3.964   2.042 -0.0879 -0.1140 -0.6401
 3212SOL     OW10227   5.032   5.155   3.095 -0.3558 -0.3497 -0.2824
 3212SOL    HW110228   5.107   5.135   3.151  0.6632  1.3318 -0.9829
 3212SOL    HW210229   5.058   5.125   3.008 -1.4871 -1.9373 -0.1017
 3213SOL     OW10230   3.218   2.347   2.474 -0.4401  0.0450 -0.0514
 3213SOL    HW110231   3.194   2.355   2.566 -1.0603  1.8547 -0.3277
 3213SOL    HW210232   3.298   2.294   2.474  0.4439  1.2979  1.6854
 3214SOL     OW10233   4.430   5.110   3.262  0.2498 -0.0434 -0.2435
 3214SOL    HW110234   4.505   5.162   3.234 -0.1771 -0.1569 -1.7191
 3214SOL    HW210235   4.358   5.173   3.268 -0.4798 -0.4710 -2.8776
 3215SOL     OW10236   3.957   2.838   0.075 -0.0714 -0.4693  0.3736
 3215SOL    HW110237   4.019   2.903   0.043  1.3255 -1.4475  0.9962
 3215SOL    HW210238   3.893   2.830   0.004  0.3483  0.7515 -0.1771
 3216SOL     OW10239   4.865   4.241   3.119 -0.3328  0.2872  0.1366
 3216SOL    HW110240   4.922   4.318   3.107 -0.6334  0.3678 -0.8696
 3216SOL    HW210241   4.790   4.274   3.169  0.8535 -0.0032  2.2440
 3217SOL     OW10242   4.907   4.285   2.060  0.5040 -0.2416 -0.2126
 3217SOL    HW110243   4.988   4.293   2.009  0.7094  1.0492  0.2662
 3217SOL    HW210244   4.926   4.220   2.127  2.0457  1.7990  1.4539
 3218SOL     OW10245   5.031   0.223   0.095 -0.5902 -0.3558  0.0523
 3218SOL    HW110246   4.992   0.252   0.012  1.0029  1.5199 -0.0938
 3218SOL    HW210247   5.114   0.184   0.069 -1.1702 -2.0160  0.5896
 3219SOL     OW10248   2.426   1.402   2.386 -0.1411  0.3202 -0.5595
 3219SOL    HW110249   2.462   1.403   2.475 -0.2402  0.3330 -0.5193
 3219SOL    HW210250   2.459   1.322   2.347  0.7738  0.8373 -0.8679
 3220SOL     OW10251   5.718   2.195   0.140  0.6608 -0.1518  0.2502
 3220SOL    HW110252   5.737   2.113   0.095 -1.9885  0.3692 -2.1211
 3220SOL    HW210253   5.776   2.259   0.099  1.6575 -0.5284  1.0384
 3221SOL     OW10254   4.679   0.787   1.484 -0.1070 -0.3101  0.6277
 3221SOL    HW110255   4.684   0.694   1.507 -0.8000 -0.8144 -1.1200
 3221SOL    HW210256   4.760   0.824   1.519  1.2691 -2.0365 -0.5245
 3222SOL     OW10257   4.437   3.202   3.079  0.1144  0.0272 -0.3776
 3222SOL    HW110258   4.342   3.196   3.086  0.0152  0.9819 -0.7208
 3222SOL    HW210259   4.468   3.195   3.169 -0.0558 -3.0439 -0.4616
 3223SOL     OW10260   4.805   0.380   1.168  0.5390 -0.1644  0.6985
 3223SOL    HW110261   4.802   0.461   1.117  1.7287 -1.1113 -0.9879
 3223SOL    HW210262   4.854   0.403   1.247  2.9316  0.2795 -0.8186
 3224SOL     OW10263   5.082   2.928   2.895 -1.1948 -0.7009 -0.3310
 3224SOL    HW110264   5.039   2.967   2.819 -1.7991 -0.9970 -0.1427
 3224SOL    HW210265   5.164   2.892   2.860 -0.1506  1.4937 -0.3631
 3225SOL     OW10266   4.258   3.658   2.109 -0.3562 -0.4103  0.9089
 3225SOL    HW110267   4.323   3.598   2.072 -0.5374 -0.1024  0.0737
 3225SOL    HW210268   4.309   3.734   2.138 -0.5001  0.6954 -1.5183
 3226SOL     OW10269   4.562   3.365   0.498  0.9358 -0.1852 -0.8687
 3226SOL    HW110270   4.650   3.352   0.462  1.8154 -0.7565  1.2972
 3226SOL    HW210271   4.514   3.287   0.473  1.5800 -0.6636 -0.6462
 3227SOL     OW10272   4.688   5.281   2.391  0.1775  0.0143  0.1594
 3227SOL    HW110273   4.632   5.335   2.445  0.5020  1.0438 -0.4946
 3227SOL    HW210274   4.649   5.194   2.394 -0.7764  0.4515  0.6468
 3228SOL     OW10275   5.756   3.413   3.115  0.1261 -0.5078  0.3878
 3228SOL    HW110276   5.751   3.364   3.033  1.0469 -0.5932  0.3725
 3228SOL    HW210277   5.667   3.411   3.149 -0.2406 -0.5924 -0.5378
 3229SOL     OW10278   4.646   3.365   0.090  0.0797 -0.3998  0.3441
 3229SOL    HW110279   4.736   3.339   0.073  0.3355  0.8358 -0.3060
 3229SOL    HW210280   4.654   3.452   0.131 -0.8136 -0.2078  0.1259
 3230SOL     OW10281   5.026   4.063   0.696 -0.1312 -0.3519  0.1922
 3230SOL    HW110282   4.994   4.048   0.607  0.9347 -3.7748  0.2381
 3230SOL    HW210283   4.952   4.039   0.752 -0.7451  1.6410  0.3202
 3231SOL     OW10284   2.386   4.967   2.361 -0.3355  0.1902  0.4669
 3231SOL    HW110285   2.397   4.922   2.445 -1.4228 -0.1900  0.4292
 3231SOL    HW210286   2.292   4.984   2.356 -0.4491 -0.6688 -1.1129
 3232SOL     OW10287   4.042   3.400   2.061  0.3622  0.8484 -0.0403
 3232SOL    HW110288   4.010   3.315   2.032  1.3850  0.8457 -1.2084
 3232SOL    HW210289   4.109   3.425   1.997  1.0557  1.9056  1.0355
 3233SOL     OW10290   6.400   4.173   2.175  0.5181 -0.1590  0.0705
 3233SOL    HW110291   6.393   4.086   2.136  0.3534  0.0083 -0.2822
 3233SOL    HW210292   6.319   4.183   2.225 -0.1060  0.3222 -1.0007
 3234SOL     OW10293   3.387   2.566   2.544 -0.0327 -0.1977  0.4149
 3234SOL    HW110294   3.329   2.640   2.526 -0.5270 -0.7773 -0.4434
 3234SOL    HW210295   3.332   2.489   2.531 -0.2214 -0.7468  3.6731
 3235SOL     OW10296   4.090   4.561   0.818 -0.7638  0.1819 -0.7045
 3235SOL    HW110297   4.121   4.498   0.753 -0.5140 -2.1406  1.5227
 3235SOL    HW210298   4.158   4.561   0.886 -1.8375  1.1417  0.4262
 3236SOL     OW10299   5.486   2.391   3.367 -0.1459  0.2255  0.4699
 3236SOL    HW110300   5.580   2.408   3.365  0.1787 -1.4141  0.6737
 3236SOL    HW210301   5.478   2.297   3.385 -1.8257  0.3558  0.6221
 3237SOL     OW10302   4.678   3.776   1.941 -0.3885 -0.0553 -0.3710
 3237SOL    HW110303   4.709   3.712   2.006 -0.4643 -1.0834 -1.3132
 3237SOL    HW210304   4.743   3.771   1.871 -0.4474  0.8605 -0.4923
 3238SOL     OW10305   4.549   5.024   2.390 -0.1429  0.0585 -0.5086
 3238SOL    HW110306   4.562   4.972   2.469  1.4781  0.4609 -0.4692
 3238SOL    HW210307   4.551   4.960   2.319  2.8715  0.0329 -0.5581
 3239SOL     OW10308   1.971   5.063   0.587  0.2144 -0.5360 -0.4424
 3239SOL    HW110309   2.019   5.005   0.527  1.3501  1.5704 -1.6867
 3239SOL    HW210310   2.039   5.115   0.629 -0.7301 -0.5448  1.1598
 3240SOL     OW10311   4.965   3.115   2.337 -0.2811 -0.4733 -0.1102
 3240SOL    HW110312   4.940   3.071   2.418 -2.3915 -1.4513 -1.2166
 3240SOL    HW210313   5.034   3.176   2.363  2.1226 -3.6925  1.6852
 3241SOL     OW10314   4.860   0.014   1.529  0.2583 -0.3128 -0.4127
 3241SOL    HW110315   4.862   0.108   1.550  0.4229 -0.2198 -0.8123
 3241SOL    HW210316   4.772  -0.002   1.497 -0.2425 -0.6307  1.0752
 3242SOL     OW10317   3.431   3.771   1.634 -0.1158 -0.0207  0.0283
 3242SOL    HW110318   3.389   3.717   1.567 -0.5994  2.8754 -2.2066
 3242SOL    HW210319   3.515   3.729   1.650 -0.4548 -1.4145 -1.5833
 3243SOL     OW10320   5.410   4.736   2.699  0.2569 -0.1612 -0.5414
 3243SOL    HW110321   5.440   4.800   2.763 -1.4950  1.2422 -1.0364
 3243SOL    HW210322   5.326   4.705   2.733 -0.4449  0.2155 -1.8298
 3244SOL     OW10323   2.947   2.980   2.571  0.1684 -0.2834  0.3581
 3244SOL    HW110324   2.913   3.063   2.604 -0.4773 -1.2184  2.1738
 3244SOL    HW210325   2.869   2.934   2.539  0.5886 -0.0281 -1.1253
 3245SOL     OW10326   5.103   4.846   3.225  0.5179 -0.2353  0.6295
 3245SOL    HW110327   5.193   4.824   3.200  0.4146 -1.5481  1.3093
 3245SOL    HW210328   5.108   4.864   3.318  0.0907 -0.2297  0.6509
 3246SOL     OW10329   4.700   3.402   0.748  0.3462 -0.0154 -0.1786
 3246SOL    HW110330   4.632   3.402   0.681 -1.6107 -0.5347  1.6876
 3246SOL    HW210331   4.694   3.489   0.788 -0.1742 -0.5259  0.8817
 3247SOL     OW10332   5.115   3.539   3.017  0.3374  0.1767  0.5874
 3247SOL    HW110333   5.132   3.535   3.112  3.0749  1.1384  0.2393
 3247SOL    HW210334   5.202   3.537   2.978 -0.7212  0.2801 -1.9238
 3248SOL     OW10335   3.390   5.253   1.978 -0.0364  0.1497  0.6013
 3248SOL    HW110336   3.327   5.198   2.023  0.8867 -0.6987  0.8730
 3248SOL    HW210337   3.405   5.209   1.894  0.2132  0.3403  0.5440
 3249SOL     OW10338   3.941   3.305   0.269 -0.5622 -0.2777 -0.5438
 3249SOL    HW110339   3.923   3.291   0.176 -1.9250 -2.3833 -0.0342
 3249SOL    HW210340   3.866   3.357   0.300 -0.9439 -0.9407 -0.3289
 3250SOL     OW10341   4.829   4.582   1.561 -0.6082  0.4015  0.2134
 3250SOL    HW110342   4.749   4.546   1.523  0.4542 -1.9879  0.0479
 3250SOL    HW210343   4.862   4.642   1.494 -1.0839 -0.3602 -0.7388
 3251SOL     OW10344   4.387   4.542   3.091 -0.2955 -0.1162  0.2425
 3251SOL    HW110345   4.423   4.506   3.172 -0.1348 -0.9894 -0.1901
 3251SOL    HW210346   4.292   4.537   3.101 -0.3649  2.3872  1.4745
 3252SOL     OW10347   3.967   0.388   0.590  0.1730  0.8851  0.3844
 3252SOL    HW110348   3.931   0.300   0.581  2.7073 -0.2301  0.2526
 3252SOL    HW210349   3.986   0.396   0.684 -1.0311  1.7581  0.5784
 3253SOL     OW10350   4.684   0.533   1.618 -0.0591  0.4733 -0.2325
 3253SOL    HW110351   4.597   0.509   1.586 -1.0893  1.7421  1.4624
 3253SOL    HW210352   4.667   0.591   1.693  2.2397  0.1531  0.6131
 3254SOL     OW10353   4.733   1.260   0.448 -0.0640 -0.1574 -0.1800
 3254SOL    HW110354   4.663   1.325   0.436  0.5618  0.3164 -1.4442
 3254SOL    HW210355   4.811   1.301   0.412  0.4973 -1.3468 -0.3788
 3255SOL     OW10356   4.227   5.247   2.027 -0.5707  0.4627 -0.1640
 3255SOL    HW110357   4.288   5.246   1.953 -0.1926  2.5484  0.0456
 3255SOL    HW210358   4.174   5.325   2.014 -2.4697 -0.6910  0.2801
 3256SOL     OW10359   4.157   0.396   2.391 -0.1535 -0.1038  0.0553
 3256SOL    HW110360   4.113   0.334   2.333  0.3709 -0.5939  0.1699
 3256SOL    HW210361   4.202   0.341   2.455  1.5229  0.3311 -0.6951
 3257SOL     OW10362   4.088   4.323   3.417  0.2785  0.1027  0.0355
 3257SOL    HW110363   3.995   4.328   3.440  0.0435  1.4445 -1.0293
 3257SOL    HW210364   4.134   4.358   3.493 -0.0034 -1.2989  0.8835
 3258SOL     OW10365   6.163   2.136   2.166 -0.4264  0.0311 -0.2841
 3258SOL    HW110366   6.240   2.102   2.119 -0.6662 -0.5518 -0.2654
 3258SOL    HW210367   6.160   2.084   2.246 -0.1259  0.9002  0.3023
 3259SOL     OW10368   6.037   4.751   2.304 -0.1260  0.0302 -0.1739
 3259SOL    HW110369   5.957   4.711   2.338  0.5993 -0.1874  1.3645
 3259SOL    HW210370   6.104   4.731   2.370  1.0161  0.8952 -1.0244
 3260SOL     OW10371   4.086   4.803   2.941 -0.2322  0.6178  0.0113
 3260SOL    HW110372   4.114   4.835   3.027 -0.1159  0.6923 -0.0533
 3260SOL    HW210373   4.034   4.726   2.959  1.1296 -0.3227  0.0683
 3261SOL     OW10374   6.364   4.109   1.584  0.0322  0.2643 -0.1643
 3261SOL    HW110375   6.451   4.081   1.555  0.5678  1.8014 -0.1234
 3261SOL    HW210376   6.380   4.163   1.661 -1.0222 -0.0473  0.2880
 3262SOL     OW10377   6.760   3.071   0.479 -1.1713 -0.0310 -0.1976
 3262SOL    HW110378   6.783   3.152   0.525  1.1200  0.0185 -1.3059
 3262SOL    HW210379   6.697   3.099   0.413  1.2186  1.3995 -2.0498
 3263SOL     OW10380   4.259   3.470   0.872  0.2917 -0.0971  0.2104
 3263SOL    HW110381   4.339   3.418   0.865  1.2550  1.4930 -1.3599
 3263SOL    HW210382   4.188   3.407   0.862  1.3006 -1.5569  1.7149
 3264SOL     OW10383   5.209   4.412   3.263 -0.1564  0.0138 -0.2329
 3264SOL    HW110384   5.189   4.450   3.349  0.8521 -0.0280  0.0362
 3264SOL    HW210385   5.272   4.473   3.225 -0.4469 -0.0763 -0.8616
 3265SOL     OW10386   3.254   3.994   3.109 -0.2286  0.7348  0.3820
 3265SOL    HW110387   3.162   3.986   3.132 -0.1975  1.3819  0.7413
 3265SOL    HW210388   3.264   4.084   3.079  0.1798  0.5138 -0.1703
 3266SOL     OW10389   4.413   0.431   2.919  0.1188 -0.3633  0.2434
 3266SOL    HW110390   4.343   0.495   2.935  0.1479 -0.2173 -0.2035
 3266SOL    HW210391   4.422   0.384   3.002  0.3708  0.4876  0.7154
 3267SOL     OW10392   2.084   0.360   0.382  0.4388 -0.2299 -0.5070
 3267SOL    HW110393   1.991   0.373   0.396  0.8920  0.8205  2.0875
 3267SOL    HW210394   2.091   0.272   0.345 -1.6236  0.2355 -2.1809
 3268SOL     OW10395   5.252   0.551   0.927 -0.2287 -0.2096  0.7426
 3268SOL    HW110396   5.241   0.455   0.925 -0.1405 -0.2167 -0.2391
 3268SOL    HW210397   5.322   0.566   0.990 -0.4588 -0.7745  1.1414
 3269SOL     OW10398   5.955   0.382   1.459 -0.3538  0.3340 -0.2898
 3269SOL    HW110399   5.966   0.302   1.408  0.7889  0.1793  0.1591
 3269SOL    HW210400   5.983   0.358   1.548 -0.5510  1.0766 -0.0203
 3270SOL     OW10401   4.990   1.042   2.162 -0.5179 -0.3919  0.2055
 3270SOL    HW110402   5.065   1.093   2.193  0.9694 -2.0166 -0.5598
 3270SOL    HW210403   4.965   0.988   2.236 -1.8139  1.0348  0.8732
 3271SOL     OW10404   3.814   4.272   3.494 -0.0676 -0.7781  0.1212
 3271SOL    HW110405   3.741   4.273   3.557  0.4893  1.2271  0.7967
 3271SOL    HW210406   3.855   4.186   3.507 -2.3541 -2.0464 -0.3915
 3272SOL     OW10407   5.814   2.592   1.977  0.0054 -0.2236  0.1226
 3272SOL    HW110408   5.732   2.549   1.998 -0.9322  1.0558 -0.7602
 3272SOL    HW210409   5.788   2.674   1.935  1.7368 -0.1211 -0.8438
 3273SOL     OW10410   3.889   4.349   1.504 -0.2895  0.2312 -0.1169
 3273SOL    HW110411   3.915   4.429   1.549  1.9397  0.3292 -1.4215
 3273SOL    HW210412   3.800   4.366   1.473  0.0147  2.0879 -0.0857
 3274SOL     OW10413   5.158   2.677   0.293  0.0432  0.0170 -0.9555
 3274SOL    HW110414   5.189   2.587   0.304  1.3784  0.5422 -0.1237
 3274SOL    HW210415   5.064   2.669   0.277  0.1057 -1.5021 -0.6839
 3275SOL     OW10416   6.187   2.044   0.172  0.6318  0.1711  0.0005
 3275SOL    HW110417   6.114   2.004   0.219 -0.1158 -1.9705 -2.7392
 3275SOL    HW210418   6.257   1.980   0.176 -0.0854 -1.0341 -3.1979
 3276SOL     OW10419   4.869   4.977   1.397  0.2986  0.0016 -0.3254
 3276SOL    HW110420   4.778   4.973   1.428  1.1696  0.0572  2.5176
 3276SOL    HW210421   4.874   5.061   1.352 -1.4492 -0.7721 -2.1464
 3277SOL     OW10422   5.270   0.530   2.314 -0.3321  0.0566 -0.4056
 3277SOL    HW110423   5.309   0.447   2.344 -0.6444  0.7140  2.0242
 3277SOL    HW210424   5.247   0.513   2.223  1.6048 -1.7996 -0.6542
 3278SOL     OW10425   2.792   4.069   2.856 -0.5329  0.4730 -0.1894
 3278SOL    HW110426   2.807   4.012   2.781  0.3625 -0.5883  0.7473
 3278SOL    HW210427   2.724   4.024   2.907 -0.7768  0.9270 -0.1065
 3279SOL     OW10428   5.411   5.355   0.794  0.1701  0.1112  0.3025
 3279SOL    HW110429   5.456   5.339   0.878  0.4675 -1.9034 -0.1931
 3279SOL    HW210430   5.320   5.368   0.818  0.0386 -1.6561  0.8834
 3280SOL     OW10431   3.024   4.180   2.977 -0.4980  0.1557 -0.6000
 3280SOL    HW110432   2.954   4.137   3.026 -0.6715  2.0506  0.9022
 3280SOL    HW210433   2.983   4.205   2.894 -0.9442 -0.7733 -0.6702
 3281SOL     OW10434   3.561   4.056   0.624 -0.0556 -0.0464 -0.2532
 3281SOL    HW110435   3.482   4.081   0.576  1.7864  3.4998 -1.8229
 3281SOL    HW210436   3.607   3.997   0.563  0.7620  1.9107 -1.6516
 3282SOL     OW10437   5.738   0.419   3.131 -0.0348 -0.2065  0.5368
 3282SOL    HW110438   5.755   0.362   3.056  1.1392  1.2132 -0.3357
 3282SOL    HW210439   5.757   0.507   3.099  0.7585  0.4339  2.5740
 3283SOL     OW10440   3.643   4.818   2.531  0.2239 -0.0768  0.1597
 3283SOL    HW110441   3.678   4.870   2.459 -1.4725  0.5312 -0.2633
 3283SOL    HW210442   3.571   4.768   2.493  1.1755 -2.0387  0.7875
 3284SOL     OW10443   3.599   4.279   1.914 -0.0019 -0.8070 -0.0680
 3284SOL    HW110444   3.563   4.221   1.981 -0.0201 -0.2422  0.4191
 3284SOL    HW210445   3.694   4.271   1.925  0.0002  0.5312  1.1405
 3285SOL     OW10446   5.300   3.933   0.286 -0.9752 -0.1281  0.0919
 3285SOL    HW110447   5.328   3.954   0.375 -0.0617  0.3756 -0.3041
 3285SOL    HW210448   5.345   3.997   0.231  1.4847 -2.6832 -1.1228
 3286SOL     OW10449   4.864   3.709   3.021  0.0814  0.4891  0.6978
 3286SOL    HW110450   4.888   3.762   2.945  0.6478  1.1133  1.3002
 3286SOL    HW210451   4.947   3.675   3.054 -0.4028 -2.8047 -1.0702
 3287SOL     OW10452   3.794   4.912   1.673  0.1050  0.0635 -0.0506
 3287SOL    HW110453   3.797   5.008   1.678 -2.4946  0.2005  0.4469
 3287SOL    HW210454   3.879   4.884   1.705  1.1547  2.1975 -0.7301
 3288SOL     OW10455   3.974   0.073   0.824 -1.1045 -0.3139 -0.1930
 3288SOL    HW110456   4.046   0.136   0.830 -0.2656 -1.3161  0.6499
 3288SOL    HW210457   3.996   0.005   0.887 -1.8622 -1.5748 -1.2271
 3289SOL     OW10458   4.635   3.992   1.501  0.5812 -0.2593 -0.0334
 3289SOL    HW110459   4.655   4.086   1.499 -2.6105  0.5206 -0.0531
 3289SOL    HW210460   4.595   3.973   1.417 -0.6048 -1.1463  0.6908
 3290SOL     OW10461   6.369   4.008   3.285 -0.5647  0.0575 -0.1953
 3290SOL    HW110462   6.441   3.984   3.227 -0.6217 -1.0467  0.1650
 3290SOL    HW210463   6.333   4.088   3.247 -1.4254 -1.3005 -2.4634
 3291SOL     OW10464   2.403   3.911   2.316 -0.2254 -0.6301  0.1446
 3291SOL    HW110465   2.363   3.897   2.230  1.6442 -1.8853 -0.5813
 3291SOL    HW210466   2.411   4.006   2.324 -0.6203 -0.4929 -0.9701
 3292SOL     OW10467   3.872   4.935   2.718  0.0219 -0.2499  0.4099
 3292SOL    HW110468   3.791   4.976   2.690  2.1500  2.8530 -1.7686
 3292SOL    HW210469   3.908   4.994   2.784  2.1171  0.3576 -1.1835
 3293SOL     OW10470   6.259   3.522   2.710  0.6395  0.0247  0.5219
 3293SOL    HW110471   6.189   3.465   2.739  1.2356 -0.3309  1.2948
 3293SOL    HW210472   6.230   3.611   2.733 -0.2461  0.0536 -0.6041
 3294SOL     OW10473   3.635   0.191   0.222  0.7742 -0.5889 -0.1711
 3294SOL    HW110474   3.598   0.155   0.142  0.2092 -0.8070  0.1830
 3294SOL    HW210475   3.693   0.261   0.192  0.3797 -0.5046 -0.7564
 3295SOL     OW10476   6.130   0.495   2.975 -0.4425  0.2861 -0.0910
 3295SOL    HW110477   6.044   0.538   2.974 -0.1533  0.9300 -1.9049
 3295SOL    HW210478   6.172   0.525   3.055 -2.3204 -0.9610  1.4439
 3296SOL     OW10479   5.988   4.566   0.240 -0.0410 -0.2837  0.3970
 3296SOL    HW110480   6.039   4.616   0.304  1.2060 -0.9863 -0.0099
 3296SOL    HW210481   5.901   4.605   0.243  0.2567  0.3530  1.7975
 3297SOL     OW10482   5.819   0.427   2.621 -0.0632 -0.7867  0.5567
 3297SOL    HW110483   5.749   0.411   2.557  1.1559 -0.7834 -0.8488
 3297SOL    HW210484   5.844   0.519   2.606  1.7204 -1.4007 -0.5609
 3298SOL     OW10485   4.514   2.769   0.283 -0.2554  0.0513 -0.0647
 3298SOL    HW110486   4.589   2.748   0.338 -0.2257 -0.1080 -0.1646
 3298SOL    HW210487   4.448   2.803   0.343 -0.6617 -1.2256  0.2479
 3299SOL     OW10488   4.429   3.325   2.103 -0.3493 -0.1161  0.0201
 3299SOL    HW110489   4.359   3.348   2.041 -0.9123  0.5338  0.8706
 3299SOL    HW210490   4.384   3.276   2.172  0.0684  0.1168  0.4625
 3300SOL     OW10491   4.900   0.556   0.677 -0.7367 -0.5042  0.2661
 3300SOL    HW110492   4.815   0.579   0.716 -1.9433 -2.5124 -0.9509
 3300SOL    HW210493   4.930   0.481   0.729  0.6327  0.5538  1.0585
 3301SOL     OW10494   3.635   5.142   0.493  0.7940  0.1942 -0.2223
 3301SOL    HW110495   3.716   5.191   0.480  0.7615  0.1573 -0.5637
 3301SOL    HW210496   3.587   5.152   0.411 -0.3061  1.5990  0.5464
 3302SOL     OW10497   4.214   2.614   3.062  0.0108  0.3902 -0.1520
 3302SOL    HW110498   4.263   2.543   3.102  0.8511  1.8839  1.6069
 3302SOL    HW210499   4.266   2.639   2.985  0.0664 -0.4045 -0.3813
 3303SOL     OW10500   5.426   3.090   0.789 -0.3625 -0.2710  0.2445
 3303SOL    HW110501   5.350   3.035   0.809  0.2682 -0.4350  2.3858
 3303SOL    HW210502   5.488   3.030   0.746 -1.3998 -0.1296 -1.5307
 3304SOL     OW10503   4.119   4.701   3.340  0.0975 -0.5179  0.7148
 3304SOL    HW110504   4.121   4.777   3.398 -1.5338 -0.4347  0.6987
 3304SOL    HW210505   4.210   4.671   3.337  0.8474  1.6041  0.4728
 3305SOL     OW10506   5.048   5.266   1.705 -0.5209  0.3587  0.0376
 3305SOL    HW110507   5.115   5.333   1.721 -0.2769 -0.0279  0.6898
 3305SOL    HW210508   4.994   5.302   1.635 -0.8844  1.5938  0.9206
 3306SOL     OW10509   6.802   0.454   3.436 -0.2288 -0.0645  0.8048
 3306SOL    HW110510   6.789   0.376   3.489 -0.4878  1.2407  2.8074
 3306SOL    HW210511   6.850   0.514   3.494  1.5117  0.6554 -1.2562
 3307SOL     OW10512   6.227   0.258   0.580  0.7569 -0.1097 -0.1909
 3307SOL    HW110513   6.285   0.187   0.608  0.7704  0.1645  0.4880
 3307SOL    HW210514   6.215   0.312   0.658 -0.4966 -0.2176 -0.2812
 3308SOL     OW10515   5.372   0.954   1.751 -0.1327 -0.4122 -0.0110
 3308SOL    HW110516   5.352   0.886   1.687 -0.6779 -0.3885  0.1279
 3308SOL    HW210517   5.311   0.938   1.823  0.6469 -0.6044  0.6352
 3309SOL     OW10518   0.499   1.646   1.389 -0.0133  0.1552  0.1931
 3309SOL    HW110519   0.586   1.608   1.381  0.7390  1.9013 -0.6136
 3309SOL    HW210520   0.448   1.605   1.319  1.0769  1.2983 -1.3580
 3310SOL     OW10521   6.996   5.230   2.159 -0.2583  0.3162  0.0038
 3310SOL    HW110522   6.956   5.207   2.243 -1.0798  3.2174  0.5273
 3310SOL    HW210523   7.083   5.263   2.182  0.2110 -0.5000 -0.5267
 3311SOL     OW10524   0.492   0.409   2.940  0.3746  1.0176 -0.1572
 3311SOL    HW110525   0.507   0.459   3.021  2.3118  0.1816  0.0653
 3311SOL    HW210526   0.514   0.318   2.964 -3.1703 -0.0726 -0.4946
 3312SOL     OW10527   6.538   1.468   0.158  0.1033  0.0439 -0.1227
 3312SOL    HW110528   6.527   1.386   0.208 -0.8877  0.2091 -0.0602
 3312SOL    HW210529   6.612   1.450   0.100  0.4656 -0.5898  0.5086
 3313SOL     OW10530   6.398   1.120   2.243  0.3188  0.0515  0.1720
 3313SOL    HW110531   6.388   1.174   2.322 -5.0622 -2.0841  1.4172
 3313SOL    HW210532   6.425   1.035   2.277 -0.4950 -0.4643 -0.4495
 3314SOL     OW10533   5.846   4.985   0.668 -0.0322  0.4156 -0.6261
 3314SOL    HW110534   5.765   5.027   0.697 -0.3923  0.4380 -1.6316
 3314SOL    HW210535   5.900   5.057   0.635  0.9905  0.6011  1.2715
 3315SOL     OW10536   6.589   0.867   1.628  0.1751  0.1005  0.0263
 3315SOL    HW110537   6.555   0.807   1.694 -0.1826 -1.0189 -1.1501
 3315SOL    HW210538   6.594   0.952   1.673 -2.1837 -0.1436  0.8549
 3316SOL     OW10539   5.215   2.229   3.186 -0.3969  0.0613 -0.1690
 3316SOL    HW110540   5.179   2.289   3.251 -0.2923  0.9558 -0.9193
 3316SOL    HW210541   5.233   2.284   3.110  0.1611 -0.8352 -0.7025
 3317SOL     OW10542   5.986   4.211   3.456  0.2096 -0.0653  0.0398
 3317SOL    HW110543   6.035   4.129   3.464 -1.1936 -0.9815 -0.3261
 3317SOL    HW210544   5.974   4.241   3.546  0.4778 -0.4227  0.1992
 3318SOL     OW10545   6.264   5.318   0.360 -0.2155  0.3183 -0.3417
 3318SOL    HW110546   6.308   5.384   0.306  1.7624 -1.5753 -1.1514
 3318SOL    HW210547   6.334   5.260   0.390 -1.6759 -0.5091  1.7421
 3319SOL     OW10548   7.041   0.952   1.075 -0.1657 -0.0229 -0.5381
 3319SOL    HW110549   7.061   0.908   1.158  0.9208 -0.5956 -1.0744
 3319SOL    HW210550   7.075   1.041   1.086  0.8082 -0.3588 -0.6588
 3320SOL     OW10551   5.757   0.316   2.879 -0.7423  0.1160  0.0288
 3320SOL    HW110552   5.680   0.261   2.862  0.2874 -0.5045 -3.3135
 3320SOL    HW210553   5.768   0.367   2.799  1.6987  1.0306  0.8719
 3321SOL     OW10554   4.291   1.608   0.246  0.1402 -0.4254  0.2420
 3321SOL    HW110555   4.358   1.626   0.312  0.9801  0.5968 -0.8361
 3321SOL    HW210556   4.273   1.514   0.255  1.8806 -0.7755  0.4197
 3322SOL     OW10557   5.933   2.014   1.643 -0.0275  0.4153 -0.1711
 3322SOL    HW110558   5.875   2.087   1.624 -0.0929  0.1977 -0.8190
 3322SOL    HW210559   6.018   2.055   1.658 -0.4778  0.8070  1.5390
 3323SOL     OW10560   7.163   1.832   3.320 -0.4977 -0.4238  0.0813
 3323SOL    HW110561   7.204   1.822   3.234  1.1440  1.1096  0.6270
 3323SOL    HW210562   7.119   1.748   3.336  0.0619 -1.1087 -1.7755
 3324SOL     OW10563   0.380   0.989   2.707 -0.0641  0.1509  0.1637
 3324SOL    HW110564   0.339   0.967   2.791 -0.9546 -2.1108 -0.7768
 3324SOL    HW210565   0.468   0.951   2.712  0.1884  0.7567  0.3768
 3325SOL     OW10566   6.583   0.672   1.235  0.7068  0.0315  0.2493
 3325SOL    HW110567   6.632   0.704   1.311  0.1399 -0.5626  0.8808
 3325SOL    HW210568   6.562   0.751   1.185  0.1976  0.5533  1.2474
 3326SOL     OW10569   0.622   3.755   2.861 -0.2482  0.1678 -0.2312
 3326SOL    HW110570   0.706   3.723   2.828  0.3640  0.6984  0.7539
 3326SOL    HW210571   0.557   3.701   2.817  0.6767 -1.2858  0.1149
 3327SOL     OW10572   0.224   0.020   2.339  0.5434 -0.3225 -0.4416
 3327SOL    HW110573   0.166   0.089   2.371  2.4262  1.2842 -0.3796
 3327SOL    HW210574   0.267   0.057   2.263  0.2068 -2.1408 -1.5747
 3328SOL     OW10575   6.419   1.580   3.455 -0.3485  0.3004  0.7193
 3328SOL    HW110576   6.440   1.539   3.539 -1.6661 -0.5128  0.6790
 3328SOL    HW210577   6.459   1.523   3.389 -0.7967 -0.0286  0.7297
 3329SOL     OW10578   1.360   0.617   2.219  0.2527  0.3711 -0.3235
 3329SOL    HW110579   1.388   0.647   2.132  2.2893  1.2680  0.5938
 3329SOL    HW210580   1.296   0.683   2.247 -1.8394 -0.8894 -1.8144
 3330SOL     OW10581   0.182   1.535   2.423 -0.3003 -0.1424  0.3126
 3330SOL    HW110582   0.177   1.526   2.518  1.1164  0.1851  0.4397
 3330SOL    HW210583   0.113   1.597   2.401 -0.3791  0.0848  1.1729
 3331SOL     OW10584   7.043   3.777   2.785  0.0207 -0.0355  0.0765
 3331SOL    HW110585   6.961   3.794   2.740 -0.4095  0.7492  1.1132
 3331SOL    HW210586   7.073   3.863   2.814  0.6420 -0.4361  0.6548
 3332SOL     OW10587   6.311   2.616   0.976  0.0480  0.4689 -0.1293
 3332SOL    HW110588   6.287   2.548   0.913 -0.7741  0.9643 -0.3709
 3332SOL    HW210589   6.397   2.590   1.008  1.4188  1.2328 -2.8881
 3333SOL     OW10590   0.647   2.963   0.607  0.1695 -0.2226 -0.6171
 3333SOL    HW110591   0.652   3.051   0.570  0.2186  0.7751  1.5921
 3333SOL    HW210592   0.640   2.977   0.702 -0.5660 -2.5898 -0.2499
 3334SOL     OW10593   5.838   0.936   1.048 -0.1178 -0.6550  0.1551
 3334SOL    HW110594   5.851   0.899   0.961 -1.1523  0.4814 -0.5024
 3334SOL    HW210595   5.884   1.020   1.045  2.3358 -1.8183  1.6799
 3335SOL     OW10596   5.780   1.780   1.971  0.3876  0.2231 -0.4489
 3335SOL    HW110597   5.707   1.835   2.000 -0.1922 -1.0907  0.7145
 3335SOL    HW210598   5.774   1.779   1.876 -1.3212 -0.0792 -0.3663
 3336SOL     OW10599   0.705   1.798   2.911  0.4532  0.5792 -0.1283
 3336SOL    HW110600   0.769   1.728   2.925 -1.3646 -0.9978  0.6708
 3336SOL    HW210601   0.693   1.800   2.816  0.5073 -0.1998 -0.1564
 3337SOL     OW10602   0.734   2.125   2.170 -0.0439 -0.0655 -0.5495
 3337SOL    HW110603   0.724   2.035   2.201 -0.1353  0.1027 -0.0684
 3337SOL    HW210604   0.828   2.143   2.175 -0.1653  0.3866  0.9340
 3338SOL     OW10605   6.820   0.102   0.650 -0.0263  0.6607  0.2876
 3338SOL    HW110606   6.913   0.123   0.644  0.4439 -0.2837  2.8387
 3338SOL    HW210607   6.777   0.168   0.597  2.1227  0.6893 -1.5640
 3339SOL     OW10608   0.686   2.209   0.634 -0.4312  0.1837  0.0326
 3339SOL    HW110609   0.661   2.238   0.546  0.3221 -0.5764 -0.4497
 3339SOL    HW210610   0.617   2.242   0.691 -0.1907  1.9270 -0.6385
 3340SOL     OW10611   0.618   1.978   1.878  0.0534  0.6392 -0.3373
 3340SOL    HW110612   0.682   2.015   1.939  1.2751 -0.6203 -0.8000
 3340SOL    HW210613   0.602   2.048   1.815 -0.3481  1.5570  0.7511
 3341SOL     OW10614   4.812   2.598   2.971 -0.2000  0.0360  0.0311
 3341SOL    HW110615   4.892   2.650   2.979 -1.1663  1.6864 -0.4762
 3341SOL    HW210616   4.752   2.637   3.035 -1.5311  0.7217 -1.5627
 3342SOL     OW10617   1.259   5.280   3.114 -0.1720  0.1852 -0.2124
 3342SOL    HW110618   1.232   5.339   3.043  0.2671 -0.2356 -0.7361
 3342SOL    HW210619   1.183   5.222   3.126  0.4443 -1.0116 -1.7036
 3343SOL     OW10620   6.935   2.268   0.656  0.2624 -0.3590  0.5841
 3343SOL    HW110621   6.862   2.321   0.625 -0.2678  0.0351  2.4098
 3343SOL    HW210622   6.922   2.183   0.613 -0.7197 -0.0080  0.1501
 3344SOL     OW10623   0.924   0.728   1.220 -0.2288 -0.5141 -0.3186
 3344SOL    HW110624   1.007   0.723   1.269 -0.8664  0.3412  0.9036
 3344SOL    HW210625   0.921   0.817   1.186 -1.3057 -0.0281  0.9391
 3345SOL     OW10626   5.965   1.058   0.675 -0.2467 -0.0699 -0.3305
 3345SOL    HW110627   5.935   0.979   0.719  0.3631  0.1803  0.5592
 3345SOL    HW210628   6.056   1.068   0.702 -0.3446  0.9948 -0.3500
 3346SOL     OW10629   1.144   1.487   3.048 -0.1071 -0.0577 -0.0156
 3346SOL    HW110630   1.209   1.556   3.037  0.0151 -0.0261  0.8830
 3346SOL    HW210631   1.193   1.412   3.082 -0.4458 -0.2022  0.1623
 3347SOL     OW10632   5.960   4.811   1.113  0.1249 -0.1405 -0.2280
 3347SOL    HW110633   5.898   4.884   1.107  1.7730  1.3473  0.1298
 3347SOL    HW210634   6.006   4.811   1.030  1.1737  0.2235  0.3350
 3348SOL     OW10635   5.359   2.098   2.650  0.0518  0.6930 -0.4270
 3348SOL    HW110636   5.272   2.086   2.690  0.4480  0.2051  0.3128
 3348SOL    HW210637   5.346   2.169   2.587 -0.8527  0.7305 -0.2210
 3349SOL     OW10638   7.204   1.364   3.273  0.0498 -0.1962  0.1478
 3349SOL    HW110639   7.219   1.458   3.287 -1.3300 -0.0565  0.8842
 3349SOL    HW210640   7.291   1.325   3.272  0.5593  0.7876  2.1783
 3350SOL     OW10641   6.442   1.553   2.185 -0.4874  0.2972  0.0263
 3350SOL    HW110642   6.407   1.501   2.257  0.4405  0.7364  0.8151
 3350SOL    HW210643   6.391   1.634   2.185 -0.9150  0.0284 -0.2250
 3351SOL     OW10644   4.635   4.974   3.050 -0.0172  0.3174  0.0239
 3351SOL    HW110645   4.563   5.019   3.006 -1.1198 -0.9374  0.4838
 3351SOL    HW210646   4.710   4.987   2.992 -0.8567  0.7479 -1.0036
 3352SOL     OW10647   6.488   4.957   0.097 -0.7762  0.0198  0.0496
 3352SOL    HW110648   6.394   4.965   0.117 -0.3980  0.8337  1.7408
 3352SOL    HW210649   6.498   4.868   0.064 -2.1484 -0.0935 -0.1258
 3353SOL     OW10650   7.041   0.851   0.814 -0.7777 -0.4896  0.4339
 3353SOL    HW110651   7.029   0.898   0.897 -2.1209 -1.5620  0.9015
 3353SOL    HW210652   7.046   0.920   0.748 -0.8987  0.3608  1.2804
 3354SOL     OW10653   6.445   5.294   3.198  0.4428  0.1633 -0.2653
 3354SOL    HW110654   6.419   5.218   3.250  0.1898  0.5709  0.2208
 3354SOL    HW210655   6.497   5.259   3.126 -0.5069 -0.5690 -0.6147
 3355SOL     OW10656   0.836   0.841   2.488  0.4916 -0.3061 -0.3409
 3355SOL    HW110657   0.889   0.890   2.425  0.5085 -0.3140 -0.3328
 3355SOL    HW210658   0.900   0.801   2.548  0.6419 -2.3520 -1.7665
 3356SOL     OW10659   0.594   1.385   1.755 -0.1757  0.7027 -0.4813
 3356SOL    HW110660   0.584   1.460   1.814  1.5964 -0.6424  1.6890
 3356SOL    HW210661   0.680   1.350   1.775 -1.4697 -2.7747 -0.3183
 3357SOL     OW10662   6.914   0.703   3.138 -0.2041  0.2521 -0.1169
 3357SOL    HW110663   6.896   0.655   3.058  0.1114 -1.3587  0.7373
 3357SOL    HW210664   6.876   0.649   3.208  0.3539  1.1338  0.9017
 3358SOL     OW10665   6.536   1.667   0.341  0.1898  0.2045 -0.5469
 3358SOL    HW110666   6.529   1.597   0.276 -1.4406  0.0080 -0.2010
 3358SOL    HW210667   6.467   1.647   0.405  1.0457  0.9965  0.6584
 3359SOL     OW10668   7.302   3.658   1.792 -0.0108 -0.1352  0.5440
 3359SOL    HW110669   7.277   3.603   1.718  0.5761 -0.4036  0.5343
 3359SOL    HW210670   7.288   3.602   1.868 -0.4177  0.0695  0.6197
 3360SOL     OW10671   6.662   2.117   3.147 -0.2141 -0.0636 -0.2422
 3360SOL    HW110672   6.634   2.030   3.177  0.2763 -0.3493 -0.6142
 3360SOL    HW210673   6.748   2.130   3.185 -0.5162  0.5063  0.2769
 3361SOL     OW10674   6.758   5.084   2.707  0.4912  0.1271 -0.4764
 3361SOL    HW110675   6.754   5.159   2.648 -0.3062  0.0161 -0.5768
 3361SOL    HW210676   6.767   5.008   2.650 -1.7951 -0.1269 -0.5979
 3362SOL     OW10677   0.715   2.053   1.460 -0.4876  0.1928  0.6300
 3362SOL    HW110678   0.633   2.009   1.436  0.7269 -2.4127  0.9192
 3362SOL    HW210679   0.783   1.990   1.436  1.4244  2.0956  0.8361
 3363SOL     OW10680   6.285   1.195   1.470  0.3380 -0.1418  0.3778
 3363SOL    HW110681   6.304   1.289   1.459 -1.0005  0.0627 -0.4418
 3363SOL    HW210682   6.205   1.181   1.419 -0.0368 -1.5320  1.3010
 3364SOL     OW10683   0.085   1.777   1.624 -0.4244  0.5252 -0.0476
 3364SOL    HW110684   0.060   1.692   1.660 -1.3057 -0.0996 -1.9873
 3364SOL    HW210685   0.179   1.771   1.610  0.4226  1.5822  3.9617
 3365SOL     OW10686   1.156   4.331   0.400 -0.5382  0.0425  0.2923
 3365SOL    HW110687   1.184   4.244   0.369  0.3245  1.1979 -2.5000
 3365SOL    HW210688   1.063   4.335   0.377 -0.7041 -0.2871  0.8728
 3366SOL     OW10689   1.158   3.910   0.106 -0.1357  0.5072  0.5042
 3366SOL    HW110690   1.081   3.928   0.160 -0.6982 -1.3424  0.3646
 3366SOL    HW210691   1.166   3.815   0.106  1.6285  0.6219 -0.2403
 3367SOL     OW10692   6.875   1.897   0.226 -0.0970  0.3133  0.2925
 3367SOL    HW110693   6.907   1.844   0.299  0.5665  1.0462  0.5560
 3367SOL    HW210694   6.950   1.952   0.203  0.1723 -0.8770 -1.8817
 3368SOL     OW10695   4.622   1.051   0.604 -0.3898  0.0480 -0.1674
 3368SOL    HW110696   4.644   1.119   0.540 -0.4668  0.0604 -0.1809
 3368SOL    HW210697   4.611   0.972   0.551 -0.9597  0.1681 -0.2278
 3369SOL     OW10698   6.251   0.466   0.755 -0.2014  0.3225 -0.1778
 3369SOL    HW110699   6.295   0.534   0.704  2.2495 -0.9725  0.0390
 3369SOL    HW210700   6.282   0.480   0.845 -1.5696  0.3489  0.3130
 3370SOL     OW10701   5.808   0.411   3.386  0.1092  0.1975  0.3964
 3370SOL    HW110702   5.795   0.421   3.292 -1.9915  1.6227  0.7737
 3370SOL    HW210703   5.731   0.363   3.416  1.2847 -1.2249  1.2847
 3371SOL     OW10704   5.402   0.277   2.004 -0.6503  0.5778  0.4177
 3371SOL    HW110705   5.379   0.369   1.990 -0.9462  0.5505  0.7227
 3371SOL    HW210706   5.462   0.279   2.080  0.6473  0.6862 -0.5757
 3372SOL     OW10707   6.236   2.643   2.174  0.0298  0.1143 -0.3562
 3372SOL    HW110708   6.200   2.564   2.214  1.7715 -0.5385  0.0083
 3372SOL    HW210709   6.210   2.637   2.082  0.5655 -1.1772 -0.4489
 3373SOL     OW10710   6.804   0.972   0.962 -0.4778 -0.0713 -0.2169
 3373SOL    HW110711   6.739   1.025   1.009 -1.0093 -0.1607 -0.8320
 3373SOL    HW210712   6.870   0.951   1.028 -1.7374 -1.0729  0.7808
 3374SOL     OW10713   6.443   1.661   0.612  0.0559  0.5901 -0.1212
 3374SOL    HW110714   6.369   1.624   0.563 -0.5441  1.1575  0.3253
 3374SOL    HW210715   6.458   1.598   0.683  0.6640 -0.0279 -0.7842
 3375SOL     OW10716   6.864   0.992   2.969 -0.1200  0.5256 -0.3443
 3375SOL    HW110717   6.887   0.906   2.934 -0.4857  0.0036  0.6592
 3375SOL    HW210718   6.918   1.002   3.047  0.9258  1.8201 -1.1736
 3376SOL     OW10719   7.390   4.294   0.800  0.0712  0.2305  0.5702
 3376SOL    HW110720   7.315   4.271   0.745  0.0723 -0.4737  0.8650
 3376SOL    HW210721   7.439   4.213   0.810  0.6206  0.5814  0.7736
 3377SOL     OW10722   0.004   0.718   2.202 -0.5571  0.6374  0.0227
 3377SOL    HW110723   0.097   0.694   2.207  0.1541  3.1399 -0.0068
 3377SOL    HW210724  -0.042   0.634   2.198  1.8657 -0.7534 -4.1548
 3378SOL     OW10725   2.751   4.040   3.285  0.3103 -0.0618  0.1770
 3378SOL    HW110726   2.746   4.022   3.379 -2.6427 -0.0803  0.1162
 3378SOL    HW210727   2.664   4.018   3.252  1.6104 -1.2387 -2.8216
 3379SOL     OW10728   6.317   0.037   0.729  0.0090 -0.4074  0.4628
 3379SOL    HW110729   6.328  -0.041   0.675  0.0380 -0.4885  0.5868
 3379SOL    HW210730   6.406   0.063   0.752 -0.0568 -1.6464  2.3107
 3380SOL     OW10731   5.754   1.080   2.180 -0.1069  0.5579  0.0379
 3380SOL    HW110732   5.697   1.016   2.137 -0.4943  0.6850  0.3557
 3380SOL    HW210733   5.832   1.085   2.124 -0.6308  0.7723 -0.6726
 3381SOL     OW10734   1.012   1.418   3.339  0.1741 -0.2745  0.2345
 3381SOL    HW110735   0.941   1.480   3.357 -0.3780 -0.7972 -0.0986
 3381SOL    HW210736   1.038   1.438   3.249 -0.2488 -0.7547  0.0007
 3382SOL     OW10737   6.758   2.543   0.163 -0.3809  0.1224  0.2809
 3382SOL    HW110738   6.738   2.636   0.149 -1.8725 -0.0667  0.9895
 3382SOL    HW210739   6.854   2.539   0.165 -0.2966  1.6915  0.5629
 3383SOL     OW10740   0.144   1.230   2.968  0.3608 -0.6860 -0.0459
 3383SOL    HW110741   0.103   1.225   3.054  0.8592 -1.1308  0.1662
 3383SOL    HW210742   0.225   1.279   2.983  0.1473 -0.2288 -0.3748
 3384SOL     OW10743   0.342   1.443   2.007  0.3375 -0.2039 -0.0706
 3384SOL    HW110744   0.353   1.462   2.100 -0.1928 -1.2951  0.2287
 3384SOL    HW210745   0.247   1.450   1.992  0.5921  2.2468 -1.0736
 3385SOL     OW10746   6.549   4.792   1.436  0.1175 -0.4956 -0.3805
 3385SOL    HW110747   6.475   4.747   1.476 -0.0170 -0.7301 -0.8747
 3385SOL    HW210748   6.618   4.725   1.431  0.2729 -0.3524 -0.1640
 3386SOL     OW10749   6.693   3.558   1.715 -0.0922 -0.0368 -0.1516
 3386SOL    HW110750   6.614   3.515   1.748  0.6733 -0.7161  0.8702
 3386SOL    HW210751   6.732   3.494   1.656 -1.2569  1.0292 -2.1883
 3387SOL     OW10752   6.811   0.154   2.233 -0.1147 -0.2593  0.1598
 3387SOL    HW110753   6.730   0.203   2.248 -0.3705 -0.6472  0.0605
 3387SOL    HW210754   6.803   0.121   2.143 -0.8361 -2.1278  0.8647
 3388SOL     OW10755   6.223   4.424   2.945  0.4173 -0.6594 -0.4805
 3388SOL    HW110756   6.301   4.463   2.984  0.6671 -0.9572 -0.6756
 3388SOL    HW210757   6.155   4.435   3.011 -0.7214  4.0118 -2.0933
 3389SOL     OW10758   6.021   2.300   0.250  0.0332  0.1774  0.1765
 3389SOL    HW110759   6.074   2.370   0.211 -1.7897  0.7263 -1.4890
 3389SOL    HW210760   6.051   2.220   0.207 -0.4376  0.4836 -0.7578
 3390SOL     OW10761   7.231   4.601   3.178 -0.3542 -0.3022  0.2145
 3390SOL    HW110762   7.142   4.595   3.213  0.1918 -1.4607  1.5010
 3390SOL    HW210763   7.287   4.565   3.247  0.9160 -1.5276 -1.3619
 3391SOL     OW10764   1.032   1.898   2.101 -0.2696  0.1678  0.0720
 3391SOL    HW110765   1.092   1.966   2.132 -2.9777  0.7520  5.0351
 3391SOL    HW210766   0.970   1.945   2.045 -0.7623  1.3486  1.5580
 3392SOL     OW10767   5.691   1.615   0.128  0.1394  0.3665  0.0365
 3392SOL    HW110768   5.733   1.553   0.187  0.4117 -0.1158 -0.6439
 3392SOL    HW210769   5.692   1.698   0.175  2.0943  0.4381 -0.0480
 3393SOL     OW10770   6.246   2.122   0.643  0.4366 -0.3584  0.3023
 3393SOL    HW110771   6.310   2.182   0.606  0.7715  0.2419  1.7865
 3393SOL    HW210772   6.294   2.040   0.658  0.9335  0.1259  1.5229
 3394SOL     OW10773   1.413   1.948   1.505  0.2948  0.1082 -0.2632
 3394SOL    HW110774   1.488   1.908   1.549 -0.1411  0.5985  0.9675
 3394SOL    HW210775   1.339   1.893   1.529 -0.4274  1.9091  1.9727
 3395SOL     OW10776   6.736   5.001   0.813  0.2710  0.2482 -0.0497
 3395SOL    HW110777   6.646   5.031   0.815  0.7973  1.9039 -0.1480
 3395SOL    HW210778   6.735   4.919   0.863 -1.0834  0.7948  0.8782
 3396SOL     OW10779   6.710   1.521   1.056 -0.7346 -0.1315 -0.5122
 3396SOL    HW110780   6.706   1.604   1.010  1.3539  0.8429  0.9057
 3396SOL    HW210781   6.674   1.540   1.143 -0.1329 -0.6485 -0.1352
 3397SOL     OW10782   5.473   2.651   0.843  0.3362 -0.4065  0.2960
 3397SOL    HW110783   5.552   2.698   0.866  0.0573 -0.2893  1.0374
 3397SOL    HW210784   5.483   2.630   0.750  1.1333 -0.2112  0.3375
 3398SOL     OW10785   6.136   2.915   3.212 -0.0820  0.2283 -0.0150
 3398SOL    HW110786   6.123   3.000   3.255 -0.0495  0.7079 -0.9277
 3398SOL    HW210787   6.190   2.865   3.273 -2.3377 -0.1503  1.7693
 3399SOL     OW10788   0.040   0.963   2.852  0.1876 -0.6354  0.0647
 3399SOL    HW110789  -0.012   0.958   2.772  1.1376 -1.9315 -0.5105
 3399SOL    HW210790   0.075   1.052   2.852 -1.3417 -0.0131  0.0460
 3400SOL     OW10791   0.824   1.082   0.167 -0.0469  0.1923  0.5349
 3400SOL    HW110792   0.842   0.991   0.190 -0.7990 -0.0616  0.1624
 3400SOL    HW210793   0.870   1.096   0.084 -1.8228 -0.5884 -0.6483
 3401SOL     OW10794   6.251   4.088   0.022 -0.1969 -0.0430 -0.1754
 3401SOL    HW110795   6.281   4.179   0.025 -1.6191  0.5700 -2.1947
 3401SOL    HW210796   6.313   4.045  -0.037 -0.5498  0.0536 -0.6163
 3402SOL     OW10797   7.348   0.527   0.722 -0.5505 -0.0637 -0.1318
 3402SOL    HW110798   7.281   0.573   0.771 -1.3648 -1.0692 -0.2578
 3402SOL    HW210799   7.425   0.528   0.779 -1.5940 -1.5661  1.4001
 3403SOL     OW10800   5.610   0.873   1.202  0.5171 -0.1478 -0.6278
 3403SOL    HW110801   5.689   0.893   1.151  1.7785 -1.3107  0.7609
 3403SOL    HW210802   5.625   0.916   1.286  0.2893 -1.4459  0.1002
 3404SOL     OW10803   5.685   1.035   1.400 -0.2170 -0.0350 -0.5193
 3404SOL    HW110804   5.779   1.030   1.416 -0.6040 -0.8005  1.9661
 3404SOL    HW210805   5.661   1.124   1.425 -0.2281 -0.0090 -0.6232
 3405SOL     OW10806  -0.005   1.024   1.975 -0.6969 -0.0380 -0.2294
 3405SOL    HW110807   0.004   1.006   2.069  0.5969  1.9819  0.1105
 3405SOL    HW210808  -0.081   0.972   1.948 -0.8012 -1.0755  1.8082
 3406SOL     OW10809   5.338   2.305   2.466  0.3676  0.5954 -0.4661
 3406SOL    HW110810   5.292   2.364   2.525  1.3580  0.0342  0.8971
 3406SOL    HW210811   5.392   2.362   2.412  0.1912  1.0429 -0.1743
 3407SOL     OW10812   7.118   0.572   1.513 -0.0224 -0.0309  0.2133
 3407SOL    HW110813   7.204   0.599   1.545  0.0816 -2.0501  1.8731
 3407SOL    HW210814   7.128   0.567   1.418  2.4224 -2.3430  0.4821
 3408SOL     OW10815   6.492   2.362   1.007 -0.4413  0.3740 -0.5224
 3408SOL    HW110816   6.514   2.374   1.099  0.5351 -1.5017 -0.4386
 3408SOL    HW210817   6.567   2.314   0.971 -1.2869  0.0969 -2.0236
 3409SOL     OW10818   0.692   1.361   0.806 -0.6843 -0.1451 -0.5027
 3409SOL    HW110819   0.704   1.392   0.717 -1.8527 -0.6663 -0.8739
 3409SOL    HW210820   0.780   1.359   0.844  0.0817 -1.6129 -2.2200
 3410SOL     OW10821   6.693   5.002   0.268 -0.7683 -0.1551 -0.0837
 3410SOL    HW110822   6.606   5.003   0.227 -1.1444 -0.8519  0.6611
 3410SOL    HW210823   6.700   5.088   0.310 -0.2614  0.6833 -1.7792
 3411SOL     OW10824   5.833   0.538   1.047  0.0756 -0.7946  0.2989
 3411SOL    HW110825   5.774   0.576   0.982 -0.0920 -0.5613  0.5807
 3411SOL    HW210826   5.793   0.562   1.131  0.5774 -0.6242  0.4898
 3412SOL     OW10827   0.407   1.710   0.982  0.2181 -0.2107  0.5889
 3412SOL    HW110828   0.433   1.798   1.009 -0.2572  0.2427 -0.3776
 3412SOL    HW210829   0.453   1.695   0.900  0.7723 -1.1163  1.0472
 3413SOL     OW10830   6.767   0.269   0.369 -0.2884 -0.7263  0.5299
 3413SOL    HW110831   6.696   0.332   0.352  1.1967  0.4350 -1.8141
 3413SOL    HW210832   6.818   0.310   0.439 -0.5320 -0.3631  0.5016
 3414SOL     OW10833   0.029   4.643   1.115  0.3491 -0.1029 -0.2096
 3414SOL    HW110834   0.110   4.691   1.130 -0.1262  1.3886 -2.1052
 3414SOL    HW210835   0.044   4.557   1.156  3.6441 -0.6255 -2.1984
 3415SOL     OW10836   6.636   5.048   1.421 -0.5236 -0.2388  0.3973
 3415SOL    HW110837   6.587   4.966   1.407 -0.6946 -0.2473  1.0424
 3415SOL    HW210838   6.727   5.024   1.407 -0.5378 -0.6259  0.9386
 3416SOL     OW10839   5.815   0.710   2.591  0.7760 -0.5813 -0.0612
 3416SOL    HW110840   5.849   0.797   2.610 -3.3668  0.9078  1.7585
 3416SOL    HW210841   5.800   0.711   2.496 -1.0256  1.6029  0.1517
 3417SOL     OW10842   6.626   5.252   0.408 -0.0965 -0.1318 -0.4904
 3417SOL    HW110843   6.682   5.264   0.486 -0.6089  0.1445 -0.1598
 3417SOL    HW210844   6.622   5.338   0.368 -0.4896 -0.0944 -0.3731
 3418SOL     OW10845   6.918   0.927   1.524 -0.1759  0.3710 -0.1760
 3418SOL    HW110846   7.004   0.913   1.484 -0.1400 -0.6213  0.2361
 3418SOL    HW210847   6.856   0.884   1.465 -0.1500 -0.8672  0.6861
 3419SOL     OW10848   0.342   1.240   2.594  0.0898  0.1705  0.0827
 3419SOL    HW110849   0.356   1.147   2.611  2.1800  0.1958 -1.2088
 3419SOL    HW210850   0.252   1.245   2.563  0.3870 -1.6518 -1.2290
 3420SOL     OW10851   7.379   0.045   2.975 -0.1016 -0.3489  0.4179
 3420SOL    HW110852   7.459   0.098   2.972 -0.3985  0.1138  0.4500
 3420SOL    HW210853   7.405  -0.036   3.018 -0.0978  0.6545  2.4503
 3421SOL     OW10854   6.037   3.884   0.033  0.0493 -0.0510  0.3575
 3421SOL    HW110855   6.107   3.949   0.036 -0.5632  0.8192 -2.1416
 3421SOL    HW210856   5.968   3.921   0.090 -0.3970  1.6964 -1.2108
 3422SOL     OW10857   6.950   1.105   1.727  0.4207  0.4353 -0.0381
 3422SOL    HW110858   6.925   1.059   1.647 -0.8789  0.2239  0.4600
 3422SOL    HW210859   7.032   1.150   1.704 -0.5581  1.4245 -1.8970
 3423SOL     OW10860   6.381   2.198   3.269  0.0332 -0.9728  0.8524
 3423SOL    HW110861   6.289   2.182   3.250  0.4782 -2.5626 -0.1233
 3423SOL    HW210862   6.428   2.159   3.195  1.5177 -0.7590  1.6446
 3424SOL     OW10863   0.088   3.374   2.249  0.1176 -0.4066  0.4201
 3424SOL    HW110864   0.098   3.363   2.344  0.8632  1.9223  0.6699
 3424SOL    HW210865   0.052   3.290   2.219 -1.1734 -0.8461  2.9075
 3425SOL     OW10866   0.349   0.902   0.459 -0.1525  0.2415  0.0429
 3425SOL    HW110867   0.260   0.870   0.475 -0.7388  1.6520 -0.2513
 3425SOL    HW210868   0.385   0.841   0.395 -0.6543 -0.7527  0.6811
 3426SOL     OW10869   6.378   1.810   1.654  0.1501 -0.1534  0.1406
 3426SOL    HW110870   6.368   1.719   1.682 -2.3715  0.0608  0.2141
 3426SOL    HW210871   6.468   1.832   1.675  0.4600 -2.2350  1.3107
 3427SOL     OW10872   7.380   0.514   1.595  0.0522  0.4343  0.4157
 3427SOL    HW110873   7.474   0.518   1.577 -0.1915 -1.2665 -1.4987
 3427SOL    HW210874   7.364   0.424   1.621 -1.2245  0.4187 -0.3620
 3428SOL     OW10875   7.046   4.977   0.506 -0.1851 -0.7445 -0.3323
 3428SOL    HW110876   7.040   5.048   0.442 -1.0487 -1.0745 -0.6276
 3428SOL    HW210877   7.117   5.004   0.564 -1.1671  0.8719  0.1801
 3429SOL     OW10878   7.262   1.861   1.252 -0.1679  0.5009  0.2928
 3429SOL    HW110879   7.315   1.827   1.180 -1.0527 -2.1998  0.7865
 3429SOL    HW210880   7.304   1.826   1.331 -1.7055 -0.3234  0.7801
 3430SOL     OW10881   6.910   1.338   3.215 -0.0716  0.4027 -0.5238
 3430SOL    HW110882   6.849   1.407   3.241 -0.4116  0.2165 -0.8110
 3430SOL    HW210883   6.991   1.359   3.261 -0.0270  1.2531 -0.9588
 3431SOL     OW10884   4.735   0.701   0.359  0.4215 -0.1567  0.2815
 3431SOL    HW110885   4.678   0.724   0.433 -1.1018  1.2109 -1.2077
 3431SOL    HW210886   4.676   0.700   0.283  2.0107 -0.9721 -1.0078
 3432SOL     OW10887   5.055   0.446   2.148  0.0596 -0.2329 -0.1739
 3432SOL    HW110888   5.026   0.418   2.235 -2.0870  1.9700 -0.0748
 3432SOL    HW210889   5.019   0.380   2.089  0.1725 -0.8714  0.4445
 3433SOL     OW10890   1.575   0.641   0.279 -0.1731 -0.5809  0.3553
 3433SOL    HW110891   1.553   0.589   0.357 -3.2270  0.3535  0.2495
 3433SOL    HW210892   1.660   0.679   0.299 -0.5356 -0.9430  2.9544
 3434SOL     OW10893   5.062   2.003   0.366 -0.1797 -0.0865 -0.9883
 3434SOL    HW110894   5.012   2.072   0.409  0.5826  0.4812 -0.9929
 3434SOL    HW210895   4.999   1.959   0.309 -0.9808 -0.2654  0.0269
 3435SOL     OW10896   4.996   0.374   3.172 -0.1688  0.1489 -0.4545
 3435SOL    HW110897   5.037   0.460   3.184 -2.6055  1.5618 -1.6427
 3435SOL    HW210898   5.008   0.355   3.079 -2.0442  0.5824 -0.8284
 3436SOL     OW10899   5.241   2.365   2.930 -0.0818 -0.2505  0.1048
 3436SOL    HW110900   5.266   2.402   2.846  0.4871  1.9090  1.1585
 3436SOL    HW210901   5.147   2.347   2.921 -0.1369  0.4459 -0.8266
 3437SOL     OW10902   6.308   2.887   1.277 -0.6045 -0.3174  0.0117
 3437SOL    HW110903   6.301   2.905   1.183 -1.1203 -1.1535 -0.1205
 3437SOL    HW210904   6.379   2.823   1.283 -0.4103 -0.0841  0.2208
 3438SOL     OW10905   6.266   1.548   0.449  0.9276  0.1171 -0.1060
 3438SOL    HW110906   6.196   1.609   0.425  0.0664 -1.3726 -1.5602
 3438SOL    HW210907   6.222   1.466   0.467  2.1083 -0.2197  1.4157
 3439SOL     OW10908   6.448   5.398   2.409 -0.4852 -0.0939 -0.4035
 3439SOL    HW110909   6.465   5.430   2.320 -1.9473  0.1158 -0.6336
 3439SOL    HW210910   6.372   5.447   2.438  0.6056  0.6134  1.4155
 3440SOL     OW10911   7.250   1.685   1.478 -0.8875 -0.1612  0.4810
 3440SOL    HW110912   7.286   1.665   1.565  0.2723  1.0495  0.3124
 3440SOL    HW210913   7.233   1.599   1.439 -0.6524 -0.7323  1.5943
 3441SOL     OW10914   7.377   0.951   1.095  0.4810 -0.8144 -0.3985
 3441SOL    HW110915   7.353   0.937   1.187  3.1791 -0.2796  0.5056
 3441SOL    HW210916   7.403   1.043   1.092  0.6506 -0.8922 -1.6593
 3442SOL     OW10917   0.761   1.110   1.558 -0.0179 -0.0907 -0.1387
 3442SOL    HW110918   0.802   1.195   1.572 -0.5062  0.3511 -1.2372
 3442SOL    HW210919   0.833   1.048   1.556  0.3771  0.3445  0.2876
 3443SOL     OW10920   6.746   0.426   1.483  0.0223  0.2196 -0.1227
 3443SOL    HW110921   6.674   0.487   1.499 -0.6192 -0.9233  1.5557
 3443SOL    HW210922   6.802   0.434   1.560 -0.3440 -1.6557  0.3630
 3444SOL     OW10923   7.329   5.362   3.279  0.1408  0.2736 -0.5287
 3444SOL    HW110924   7.416   5.324   3.276 -0.2347 -0.6875  0.3380
 3444SOL    HW210925   7.344   5.454   3.302  1.0030  0.5328 -1.9500
 3445SOL     OW10926   6.363   2.114   0.985  0.5023 -0.3235  0.8863
 3445SOL    HW110927   6.404   2.200   0.988  0.7956 -0.4799  1.9063
 3445SOL    HW210928   6.386   2.074   1.069 -2.3259 -0.1414  1.8881
 3446SOL     OW10929   4.971   0.755   2.573  0.1142 -0.1682 -0.2878
 3446SOL    HW110930   4.884   0.720   2.593 -0.4102  1.1438 -0.1883
 3446SOL    HW210931   5.006   0.782   2.657  0.3206 -0.0320 -0.4166
 3447SOL     OW10932   5.244   1.027   3.354  0.0741 -1.0218 -0.1655
 3447SOL    HW110933   5.235   0.980   3.437 -1.8099 -1.2770 -0.4666
 3447SOL    HW210934   5.312   0.979   3.306  1.8339 -0.3387  1.5424
 3448SOL     OW10935   6.760   0.553   1.043  0.5511  0.0928  0.1911
 3448SOL    HW110936   6.853   0.535   1.052  0.5116 -0.8296 -1.0283
 3448SOL    HW210937   6.737   0.603   1.122  2.2995  1.3377 -0.0434
 3449SOL     OW10938   5.938   0.986   1.905  0.6772  0.0851 -0.3749
 3449SOL    HW110939   5.878   1.061   1.903  0.8894  0.2482 -0.7621
 3449SOL    HW210940   6.024   1.025   1.924  0.4938 -0.2620  1.2443
 3450SOL     OW10941   2.221   1.317   0.107 -0.0946 -0.5026  0.0485
 3450SOL    HW110942   2.173   1.378   0.163  0.6028 -0.9798  1.2060
 3450SOL    HW210943   2.210   1.352   0.019 -1.0567  0.3866  0.4936
 3451SOL     OW10944   5.476   3.458   2.439  0.4052 -1.4947  0.0288
 3451SOL    HW110945   5.539   3.524   2.468  1.1947 -2.4966  0.6411
 3451SOL    HW210946   5.529   3.392   2.396 -0.3831 -1.7391 -0.5901
 3452SOL     OW10947   5.214   5.026   1.664  0.0153 -0.5757  0.5281
 3452SOL    HW110948   5.169   5.110   1.657 -0.1507 -0.7424 -0.7393
 3452SOL    HW210949   5.235   5.017   1.757 -1.8678 -0.1285  1.0362
 3453SOL     OW10950   0.371   1.396   2.272  0.0009 -0.0101  0.1458
 3453SOL    HW110951   0.343   1.305   2.268  0.6066 -0.2005  0.2101
 3453SOL    HW210952   0.297   1.442   2.312 -0.1312 -0.5417  0.5185
 3454SOL     OW10953   5.395   1.168   0.888  0.4570  0.1420  0.1179
 3454SOL    HW110954   5.488   1.149   0.879  0.8101  1.7568  0.1099
 3454SOL    HW210955   5.386   1.258   0.857 -0.9200  0.3900  1.1453
 3455SOL     OW10956   6.660   2.087   0.685 -0.1428 -0.2663  0.1437
 3455SOL    HW110957   6.680   2.105   0.777  2.6083 -2.0846  0.0328
 3455SOL    HW210958   6.595   2.017   0.687  0.9224 -1.2718  0.7773
 3456SOL     OW10959   5.873   2.614   1.442  0.1795  0.5338  0.1890
 3456SOL    HW110960   5.889   2.656   1.358  1.3414  1.4698  0.8432
 3456SOL    HW210961   5.820   2.677   1.491 -0.3859  0.0477  0.2161
 3457SOL     OW10962   0.431   1.326   1.535 -0.3921  0.1979 -0.0431
 3457SOL    HW110963   0.393   1.266   1.599  0.0754  1.8762  1.9245
 3457SOL    HW210964   0.491   1.381   1.586  0.4390  1.2644 -2.0420
 3458SOL     OW10965   5.380   0.556   1.972 -0.1311 -0.2595  1.0920
 3458SOL    HW110966   5.422   0.554   1.886 -1.3977 -2.1687  0.4640
 3458SOL    HW210967   5.367   0.650   1.989 -2.3723  0.2244 -2.1330
 3459SOL     OW10968   5.866   3.003   2.555  0.0825  0.7060  0.6002
 3459SOL    HW110969   5.882   3.093   2.583  1.5061  1.0528 -1.1743
 3459SOL    HW210970   5.941   2.954   2.588  0.4114  0.6037 -0.2852
 3460SOL     OW10971   6.752   1.962   2.132  0.1857  0.5411 -0.7008
 3460SOL    HW110972   6.765   2.008   2.215 -1.4692  1.1990 -0.7779
 3460SOL    HW210973   6.712   2.027   2.074 -0.9228 -0.5980 -1.2567
 3461SOL     OW10974   5.861   4.472   1.114  0.0045  0.3414 -0.2638
 3461SOL    HW110975   5.915   4.499   1.189 -0.8328 -0.1019  0.5149
 3461SOL    HW210976   5.771   4.474   1.147 -0.4649  0.9030 -1.4923
 3462SOL     OW10977   6.731   1.640   3.177 -0.1607 -0.0019  0.7906
 3462SOL    HW110978   6.755   1.585   3.102 -2.2836 -1.3743  1.0354
 3462SOL    HW210979   6.785   1.719   3.167 -0.0478 -0.3338 -1.9333
 3463SOL     OW10980   5.304   5.330   3.156  0.0841  0.5542 -0.5347
 3463SOL    HW110981   5.243   5.397   3.188 -1.1459 -0.1536 -1.3360
 3463SOL    HW210982   5.380   5.380   3.126 -0.7512  1.5916 -0.9940
 3464SOL     OW10983   5.757   3.080   3.297 -0.1939  0.0153  0.1555
 3464SOL    HW110984   5.690   3.028   3.340  0.1725  0.7951  1.7547
 3464SOL    HW210985   5.740   3.169   3.325  0.2488  0.5227 -1.1257
 3465SOL     OW10986   0.289   5.002   3.139  0.5196  0.2422  0.1314
 3465SOL    HW110987   0.328   4.926   3.096  0.5190 -0.1843  0.8665
 3465SOL    HW210988   0.361   5.042   3.189  1.0232  1.8934 -1.7665
 3466SOL     OW10989   6.241   0.793   1.767 -0.3651 -0.7071  0.4167
 3466SOL    HW110990   6.243   0.881   1.729  0.2748 -1.1720 -0.6796
 3466SOL    HW210991   6.310   0.793   1.833 -0.7836 -0.2035  0.8575
 3467SOL     OW10992   5.949   1.306   1.481 -0.2089 -0.0986 -0.2793
 3467SOL    HW110993   5.943   1.383   1.425  0.2643 -0.1688 -0.4292
 3467SOL    HW210994   5.858   1.282   1.499 -0.3843 -0.6986 -1.8626
 3468SOL     OW10995   6.079   1.474   0.733 -0.6469 -0.3973 -0.4412
 3468SOL    HW110996   6.050   1.560   0.761 -0.0606 -0.5890  0.8349
 3468SOL    HW210997   6.054   1.468   0.641 -0.8549  1.0547 -0.4895
 3469SOL     OW10998   6.032   0.861   0.222  0.0610  0.1296 -0.1773
 3469SOL    HW110999   5.974   0.823   0.156 -0.4117  0.1874  0.1939
 3469SOL    HW211000   6.054   0.948   0.187  0.4794 -0.1540 -0.6382
 3470SOL     OW11001   6.645   1.106   2.045  0.4639  0.2721  0.0529
 3470SOL    HW111002   6.635   1.149   2.130 -0.2141  1.4763 -0.5966
 3470SOL    HW211003   6.621   1.015   2.060  0.3717  0.4737  1.1533
 3471SOL     OW11004   7.379   1.989   1.531 -0.2304  0.4453 -0.6801
 3471SOL    HW111005   7.414   1.901   1.544 -0.4978  0.0165 -2.5846
 3471SOL    HW211006   7.451   2.047   1.554  0.2719 -0.3030 -0.3291
 3472SOL     OW11007   0.094   1.475   2.679  0.2637  0.4048 -0.4310
 3472SOL    HW111008   0.068   1.383   2.675 -2.6240  1.1132 -0.1636
 3472SOL    HW211009   0.075   1.502   2.769  0.9206  1.3307 -0.5490
 3473SOL     OW11010   6.408   5.109   2.551  0.3330 -0.2235  0.1627
 3473SOL    HW111011   6.409   5.201   2.524 -0.4763  0.1777  1.3713
 3473SOL    HW211012   6.369   5.063   2.477  2.0260  0.1776 -1.0273
 3474SOL     OW11013   1.875   3.449   3.359  0.2561  1.0380 -0.1170
 3474SOL    HW111014   1.892   3.405   3.442 -0.5048 -0.2127 -0.5951
 3474SOL    HW211015   1.961   3.461   3.319  0.6091  1.4762  0.7443
 3475SOL     OW11016   0.743   1.391   0.094 -0.0045 -0.0284 -0.1170
 3475SOL    HW111017   0.828   1.391   0.139  0.0085 -0.3866 -0.1408
 3475SOL    HW211018   0.689   1.333   0.147 -0.3957  0.6170  0.1981
 3476SOL     OW11019   0.246   0.806   2.567 -0.4718 -0.3756 -0.5471
 3476SOL    HW111020   0.158   0.843   2.574 -0.0258  0.6656 -0.2411
 3476SOL    HW211021   0.303   0.871   2.608  0.3435 -1.4462  0.0817
 3477SOL     OW11022   0.800   0.372   1.467  0.2441 -0.2573  0.1223
 3477SOL    HW111023   0.736   0.419   1.521 -0.3255 -1.1261  0.2303
 3477SOL    HW211024   0.869   0.436   1.450 -0.2288  0.4370  0.7453
 3478SOL     OW11025   4.983   0.818   0.472 -0.0520  0.1742 -0.6547
 3478SOL    HW111026   5.059   0.761   0.482  0.4326  0.8625 -0.2957
 3478SOL    HW211027   4.912   0.760   0.446  0.6067 -0.4764 -1.0404
 3479SOL     OW11028   0.069   0.857   0.542 -0.5823 -0.5705  0.1674
 3479SOL    HW111029   0.080   0.865   0.637 -1.5769 -1.1983  0.3474
 3479SOL    HW211030   0.009   0.928   0.519  0.1796  0.0035 -0.1134
 3480SOL     OW11031   7.372   1.557   0.769  0.1635  0.0861  0.2502
 3480SOL    HW111032   7.464   1.535   0.778  0.0579 -0.9224 -0.8761
 3480SOL    HW211033   7.370   1.628   0.705  0.0884 -0.6299 -0.5492
 3481SOL     OW11034   0.311   0.639   3.306 -0.0388  0.4399 -0.2155
 3481SOL    HW111035   0.276   0.614   3.391  0.4720  1.1730  0.2323
 3481SOL    HW211036   0.237   0.631   3.245 -0.1393 -1.1052  0.0849
 3482SOL     OW11037   6.510   0.297   0.742  0.3028 -0.1045 -0.1010
 3482SOL    HW111038   6.596   0.333   0.763 -0.2618  0.6864  1.0104
 3482SOL    HW211039   6.461   0.372   0.709  0.0903 -0.5922 -0.9025
 3483SOL     OW11040   4.823   2.362   2.635  0.1896 -0.0075 -0.2884
 3483SOL    HW111041   4.812   2.457   2.633 -0.5315  0.0354  2.2075
 3483SOL    HW211042   4.906   2.348   2.679 -0.4803 -0.5067  0.8712
 3484SOL     OW11043   6.393   1.311   2.460  0.6228  0.0482 -0.0080
 3484SOL    HW111044   6.394   1.348   2.548 -1.4450  0.2780 -0.0218
 3484SOL    HW211045   6.475   1.339   2.420  0.2868  2.4382  0.8577
 3485SOL     OW11046   6.837   0.833   2.117 -0.1531 -0.4254 -0.0586
 3485SOL    HW111047   6.744   0.845   2.100 -0.0574  2.4835  0.8188
 3485SOL    HW211048   6.878   0.838   2.030 -0.7229 -0.7084 -0.3491
 3486SOL     OW11049   6.557   1.603   1.273  0.0740 -0.1169 -0.6189
 3486SOL    HW111050   6.546   1.686   1.226 -0.2864 -0.0790 -0.4691
 3486SOL    HW211051   6.615   1.624   1.346  1.7813 -0.4718 -1.8186
 3487SOL     OW11052   1.246   0.998   2.607 -0.2951  0.0886 -0.1252
 3487SOL    HW111053   1.316   0.981   2.543 -0.3089 -0.9155  0.1098
 3487SOL    HW211054   1.248   0.922   2.665 -0.0119  1.1869  1.3434
 3488SOL     OW11055   5.540   2.621   0.324 -0.1008  0.0719 -0.3947
 3488SOL    HW111056   5.454   2.589   0.299  0.9738 -2.1223 -1.6032
 3488SOL    HW211057   5.594   2.609   0.246  2.1635 -2.2671  1.3290
 3489SOL     OW11058   0.233   0.516   2.658 -0.1034 -0.5746  0.4985
 3489SOL    HW111059   0.317   0.514   2.614 -0.1595  2.6356  0.0085
 3489SOL    HW211060   0.192   0.597   2.629 -2.4602 -0.9603  2.3794
 3490SOL     OW11061   6.948   1.705   0.412 -0.2969  0.3834 -0.7045
 3490SOL    HW111062   6.981   1.678   0.498 -0.6841  1.7294 -0.1049
 3490SOL    HW211063   6.888   1.635   0.386  0.2624 -0.3168 -0.1461
 3491SOL     OW11064   5.848   2.011   0.895  0.0629  0.2353 -0.0137
 3491SOL    HW111065   5.920   2.072   0.907  0.3441 -0.1078  0.0638
 3491SOL    HW211066   5.771   2.066   0.882  0.5609  0.6180 -1.4761
 3492SOL     OW11067   7.320   1.511   0.219 -0.5646  0.4537  0.5118
 3492SOL    HW111068   7.377   1.461   0.161  1.9596  2.7071  0.8522
 3492SOL    HW211069   7.236   1.514   0.174 -0.3225 -2.4540 -0.3269
 3493SOL     OW11070   1.994   1.234   1.090 -0.3972  0.0850 -0.0098
 3493SOL    HW111071   1.948   1.168   1.039 -2.9425 -0.2340  2.4607
 3493SOL    HW211072   1.975   1.316   1.046 -3.2099 -0.0801  0.6865
 3494SOL     OW11073   6.544   2.747   1.299  0.1230 -0.4370 -0.3832
 3494SOL    HW111074   6.588   2.820   1.341  0.7429 -1.7062  1.3173
 3494SOL    HW211075   6.611   2.679   1.293 -0.5476 -1.0379 -1.5212
 3495SOL     OW11076   7.380   1.600   3.369  0.3845  0.0276  0.0357
 3495SOL    HW111077   7.394   1.588   3.275 -0.1783  1.5436 -0.2782
 3495SOL    HW211078   7.400   1.515   3.408  2.1387 -0.2260 -1.2713
 3496SOL     OW11079   5.296   0.240   0.009 -0.0033 -0.0358 -0.1322
 3496SOL    HW111080   5.352   0.168   0.038  0.4481 -0.3809 -1.7829
 3496SOL    HW211081   5.345   0.319   0.032  0.7736 -0.3188 -0.7804
 3497SOL     OW11082   2.399   5.252   0.127 -0.3377 -0.2725  0.6667
 3497SOL    HW111083   2.415   5.159   0.116 -2.0427 -0.3341 -2.0663
 3497SOL    HW211084   2.365   5.260   0.216 -2.4793 -2.6710  0.1853
 3498SOL     OW11085   5.278   4.942   0.810  0.4667 -0.4797  0.1642
 3498SOL    HW111086   5.290   4.852   0.780  0.6052 -1.5728  3.1538
 3498SOL    HW211087   5.367   4.977   0.816  0.4106 -0.0640 -1.0372
 3499SOL     OW11088   6.887   2.300   1.582 -0.2353  0.0882  0.4179
 3499SOL    HW111089   6.923   2.346   1.658  0.1218  0.6114 -0.0662
 3499SOL    HW211090   6.804   2.345   1.564  0.3209  0.8465 -0.3248
 3500SOL     OW11091   6.349   0.516   1.671 -0.1295  0.3702  0.2118
 3500SOL    HW111092   6.400   0.530   1.591  0.6590  1.7875  0.9123
 3500SOL    HW211093   6.262   0.549   1.649 -0.0924  0.1685 -0.2578
 3501SOL     OW11094   6.738   2.249   0.218  1.0754 -0.5223 -0.4076
 3501SOL    HW111095   6.667   2.197   0.182  1.2405 -1.6051  0.7901
 3501SOL    HW211096   6.727   2.335   0.177 -0.6836 -0.7689 -0.5330
 3502SOL     OW11097   7.090   0.840   1.307  0.4030  0.1710  0.1957
 3502SOL    HW111098   7.103   0.747   1.287 -1.2650 -0.1304  0.3665
 3502SOL    HW211099   7.178   0.873   1.328  1.5240 -0.6437 -2.7503
 3503SOL     OW11100   6.132   5.130   0.045  0.3941 -0.5127  0.3059
 3503SOL    HW111101   6.088   5.201   0.090 -0.5173  0.3254 -1.7784
 3503SOL    HW211102   6.200   5.173  -0.008  2.2425 -1.5662  1.6909
 3504SOL     OW11103   6.912   0.618   0.127 -0.1083  0.1447  0.5106
 3504SOL    HW111104   6.968   0.542   0.140 -0.6294 -0.1609  0.9546
 3504SOL    HW211105   6.889   0.647   0.215 -0.7271  0.2160  0.3254
 3505SOL     OW11106   6.954   4.249   3.186  0.5166 -0.0067 -0.4186
 3505SOL    HW111107   6.959   4.161   3.222  1.1985 -0.3402 -1.2912
 3505SOL    HW211108   7.040   4.287   3.205  1.1457 -0.4292 -2.2416
 3506SOL     OW11109   5.649   0.659   0.830  0.2562 -0.1676  0.3664
 3506SOL    HW111110   5.611   0.591   0.775 -1.0230  0.2361  0.7029
 3506SOL    HW211111   5.581   0.727   0.834  2.7188  2.8459 -2.8072
 3507SOL     OW11112   0.806   5.140   2.111  0.1368 -0.2448  0.6849
 3507SOL    HW111113   0.783   5.196   2.036 -1.2462  0.1191  1.3348
 3507SOL    HW211114   0.785   5.051   2.081 -0.1930 -0.1260  0.5491
 3508SOL     OW11115   5.280   0.927   1.198 -0.2291 -0.2796 -0.3055
 3508SOL    HW111116   5.254   0.940   1.107 -0.1962  2.4925  0.0197
 3508SOL    HW211117   5.375   0.912   1.194 -0.1143  0.5014 -0.6992
 3509SOL     OW11118   6.992   1.796   1.370 -0.2852  0.0185 -0.0948
 3509SOL    HW111119   6.960   1.812   1.281  0.4723  1.4276 -0.1425
 3509SOL    HW211120   7.087   1.792   1.361 -0.2612 -1.6444  0.4126
 3510SOL     OW11121   5.868   4.719   1.541  0.4675 -0.2101 -0.1950
 3510SOL    HW111122   5.949   4.689   1.582  0.4983  0.5262  0.3095
 3510SOL    HW211123   5.873   4.815   1.547  0.4901 -0.0547 -1.9618
 3511SOL     OW11124   0.456   5.221   1.797 -0.1978 -0.3026  0.0291
 3511SOL    HW111125   0.462   5.141   1.745  1.0879 -0.8301  0.9356
 3511SOL    HW211126   0.374   5.211   1.846 -0.1324 -1.0006  0.0128
 3512SOL     OW11127   5.560   0.502   0.005  0.1077  0.2177 -0.0428
 3512SOL    HW111128   5.492   0.551  -0.041 -0.7538 -1.1791 -0.3110
 3512SOL    HW211129   5.514   0.459   0.076  0.7453 -0.5910 -0.1141
 3513SOL     OW11130   4.839   1.885   2.176 -0.3493  0.0253  0.2658
 3513SOL    HW111131   4.751   1.922   2.190 -0.2537  0.6912 -0.7759
 3513SOL    HW211132   4.824   1.792   2.160 -1.1596  0.4903 -2.2266
 3514SOL     OW11133   6.400   0.076   2.874  0.3922 -0.2919 -0.4677
 3514SOL    HW111134   6.428   0.142   2.811 -1.0253  1.6422  0.8000
 3514SOL    HW211135   6.321   0.037   2.836  0.2685 -0.0307 -0.4830
 3515SOL     OW11136   7.314   1.024   3.440 -0.7815  0.2477  0.1605
 3515SOL    HW111137   7.377   1.059   3.377  0.0883 -1.0688  0.2583
 3515SOL    HW211138   7.262   0.961   3.390 -1.7855  1.0278  0.1782
 3516SOL     OW11139   1.396   2.449   1.734 -0.3155  0.1482  0.1593
 3516SOL    HW111140   1.469   2.478   1.680  0.1407  0.5264  0.9629
 3516SOL    HW211141   1.364   2.370   1.690  0.0142  0.4688 -0.6766
 3517SOL     OW11142   0.655   1.377   2.232  0.6131 -0.1623 -0.2628
 3517SOL    HW111143   0.572   1.333   2.250 -0.8886  2.7134  0.4083
 3517SOL    HW211144   0.717   1.305   2.216 -1.2217 -2.5357  2.2600
 3518SOL     OW11145   3.685   0.894   1.252 -0.5974  0.1271  0.3602
 3518SOL    HW111146   3.635   0.954   1.308 -2.1909 -0.8360  0.0262
 3518SOL    HW211147   3.635   0.813   1.253  0.8920 -0.8407 -0.1559
 3519SOL     OW11148   6.472   1.474   3.217 -0.4835  0.3487  0.3081
 3519SOL    HW111149   6.399   1.495   3.158 -0.7511  0.2134  0.5865
 3519SOL    HW211150   6.548   1.469   3.160 -0.5087  1.4911  0.1535
 3520SOL     OW11151   7.226   1.761   0.100  0.0594 -0.1008 -0.2559
 3520SOL    HW111152   7.233   1.760   0.005 -0.3777 -0.5396 -0.2907
 3520SOL    HW211153   7.165   1.690   0.120 -0.5684  0.5718  0.2843
 3521SOL     OW11154   6.568   0.847   2.085 -0.4150 -0.4366 -0.1001
 3521SOL    HW111155   6.527   0.793   2.018  3.2779 -3.3022 -0.4190
 3521SOL    HW211156   6.545   0.804   2.168 -0.8723  0.0741  0.0439
 3522SOL     OW11157   5.437   3.832   3.330  0.4597  0.3107  0.1704
 3522SOL    HW111158   5.466   3.898   3.267  0.6345 -0.6738 -0.8100
 3522SOL    HW211159   5.441   3.750   3.282 -0.0354 -0.3847  1.2818
 3523SOL     OW11160   5.745   0.738   2.306  0.3317 -1.2074 -0.0719
 3523SOL    HW111161   5.753   0.735   2.211 -0.6735  0.2605 -0.2571
 3523SOL    HW211162   5.661   0.695   2.324  0.1081 -0.7411  0.0396
 3524SOL     OW11163   0.219   1.470   0.330 -0.6062 -0.4794  0.2425
 3524SOL    HW111164   0.177   1.445   0.412 -1.6967 -1.1693 -0.5023
 3524SOL    HW211165   0.209   1.565   0.325  0.5748 -0.2498  1.4761
 3525SOL     OW11166   4.647   1.578   3.135 -0.6744 -0.3384 -0.4619
 3525SOL    HW111167   4.635   1.539   3.048  0.4705  0.8654 -1.2009
 3525SOL    HW211168   4.718   1.641   3.123  1.1390 -1.7755  1.8887
 3526SOL     OW11169   5.482   0.655   2.671 -0.8826 -0.1543 -0.3875
 3526SOL    HW111170   5.411   0.634   2.732 -1.4690 -0.9274 -1.3136
 3526SOL    HW211171   5.527   0.729   2.712 -2.4319  0.5921  0.0660
 3527SOL     OW11172   5.933   1.353   2.846  0.1446  0.2049 -0.2938
 3527SOL    HW111173   5.906   1.339   2.936  0.4652 -2.3859 -0.5289
 3527SOL    HW211174   5.866   1.410   2.809 -1.2737 -0.5702  0.9613
 3528SOL     OW11175   0.375   4.821   1.870  0.5586 -0.2408  0.4197
 3528SOL    HW111176   0.291   4.830   1.914  0.9537 -0.7892  1.3321
 3528SOL    HW211177   0.421   4.754   1.921  0.9632 -1.0449 -0.9629
 3529SOL     OW11178   6.015   1.176   2.143  0.2607 -0.1259  0.5405
 3529SOL    HW111179   6.083   1.113   2.122  1.7726  1.3286  0.8491
 3529SOL    HW211180   6.047   1.220   2.222  0.3676  2.5333 -0.8939
 3530SOL     OW11181   5.607   3.272   2.754  0.5546  0.0650  0.1173
 3530SOL    HW111182   5.668   3.202   2.778  0.3323 -0.6574 -1.2723
 3530SOL    HW211183   5.535   3.227   2.710 -0.5809  0.9960  0.9568
 3531SOL     OW11184   6.135   1.434   2.667  0.0360 -0.6125 -0.0377
 3531SOL    HW111185   6.215   1.396   2.706 -0.2565  0.0717  1.3041
 3531SOL    HW211186   6.064   1.389   2.712 -0.3240 -0.3755 -0.3724
 3532SOL     OW11187   1.128   4.861   1.501 -0.4621  0.0783 -0.1366
 3532SOL    HW111188   1.079   4.871   1.419 -0.0134 -1.4472 -0.6191
 3532SOL    HW211189   1.218   4.848   1.474 -0.1103  0.7451  0.6696
 3533SOL     OW11190   1.104   2.186   0.113  0.0036 -0.0154 -0.3659
 3533SOL    HW111191   1.032   2.155   0.059 -0.4518  0.3501  0.0217
 3533SOL    HW211192   1.083   2.157   0.202 -0.5101  1.4707  0.0360
 3534SOL     OW11193   5.367   0.924   3.080 -0.2731 -0.6581  0.7607
 3534SOL    HW111194   5.275   0.914   3.058 -0.2841 -0.6088  0.7857
 3534SOL    HW211195   5.414   0.913   2.997 -0.2745 -1.1193  0.8170
 3535SOL     OW11196   6.856   1.093   0.071 -0.4929  0.3731 -0.4551
 3535SOL    HW111197   6.829   1.067   0.159  1.5770 -0.6785 -0.0808
 3535SOL    HW211198   6.935   1.042   0.053  0.3593  2.1324 -2.0840
 3536SOL     OW11199   0.412   1.853   2.334 -0.1839  0.3176 -0.1007
 3536SOL    HW111200   0.506   1.856   2.349  0.0359 -1.0974 -1.0357
 3536SOL    HW211201   0.398   1.908   2.256 -0.2055  0.8808  0.2936
 3537SOL     OW11202   5.758   4.567   3.188  0.0560 -0.7107 -0.1216
 3537SOL    HW111203   5.772   4.544   3.096  1.2627 -0.0539 -0.1161
 3537SOL    HW211204   5.753   4.662   3.189 -2.4251 -0.7699  0.1905
 3538SOL     OW11205   6.192   0.583   3.246  0.6254  0.3074  0.5173
 3538SOL    HW111206   6.217   0.580   3.338 -0.4050  2.8451  0.9585
 3538SOL    HW211207   6.205   0.674   3.221 -1.8544  0.3232 -1.0343
 3539SOL     OW11208   7.201   2.099   1.358  0.0485 -0.2026 -0.1438
 3539SOL    HW111209   7.197   2.015   1.311 -0.3788 -0.3723  0.1896
 3539SOL    HW211210   7.223   2.074   1.448  1.1509  0.1404 -0.2965
 3540SOL     OW11211   6.619   2.414   1.885  0.4489  1.3413 -0.0589
 3540SOL    HW111212   6.657   2.349   1.944 -2.3865 -0.9487 -0.4781
 3540SOL    HW211213   6.676   2.412   1.808  0.8530 -0.1901  0.2374
 3541SOL     OW11214   6.930   2.422   1.883  1.0013 -0.2243 -0.3839
 3541SOL    HW111215   7.012   2.422   1.933  1.0024  0.4427 -0.3753
 3541SOL    HW211216   6.885   2.343   1.911  0.9663  0.1768  0.7562
 3542SOL     OW11217   0.472   0.103   2.626 -0.4321  0.4576  0.1285
 3542SOL    HW111218   0.548   0.159   2.609  1.3814 -1.4620  1.3482
 3542SOL    HW211219   0.418   0.154   2.686  0.6639  1.3150  0.4279
 3543SOL     OW11220   6.280   1.142   0.471  0.9586  0.6372  0.1213
 3543SOL    HW111221   6.327   1.142   0.554 -1.5182  1.5218  1.6397
 3543SOL    HW211222   6.223   1.219   0.475  0.2478  0.3182 -2.1070
 3544SOL     OW11223   7.179   1.169   3.040 -0.7679 -0.3303  0.0413
 3544SOL    HW111224   7.190   1.212   3.125 -1.5773 -1.3909  0.7055
 3544SOL    HW211225   7.180   1.075   3.059  0.9771 -0.6624 -1.3836
 3545SOL     OW11226   6.594   0.314   2.297 -0.7082  0.5436  0.4047
 3545SOL    HW111227   6.539   0.250   2.252 -1.7159  1.6511 -0.0120
 3545SOL    HW211228   6.558   0.318   2.386  0.2162 -0.4237  0.8433
 3546SOL     OW11229   7.162   0.114   1.651 -0.4396  0.5041 -0.0991
 3546SOL    HW111230   7.247   0.156   1.637  0.8684 -2.0885 -0.5859
 3546SOL    HW211231   7.138   0.139   1.740  1.0579  0.9067  0.2301
 3547SOL     OW11232   6.479   4.407   1.271  0.1685  0.8508  0.0307
 3547SOL    HW111233   6.565   4.417   1.231 -0.0563  2.9974 -0.0320
 3547SOL    HW211234   6.431   4.347   1.213  1.1040  0.8742 -0.7795
 3548SOL     OW11235   6.920   0.518   1.708 -0.1959  0.3604 -0.1301
 3548SOL    HW111236   6.986   0.536   1.641  0.7895 -0.2517  0.6490
 3548SOL    HW211237   6.970   0.491   1.785 -1.3599 -0.1829  0.4680
 3549SOL     OW11238   5.471   1.198   2.249  0.3998  0.8239 -0.0482
 3549SOL    HW111239   5.549   1.143   2.240 -0.8858 -1.5459  2.1975
 3549SOL    HW211240   5.420   1.180   2.170 -0.5497 -2.3439  1.1391
 3550SOL     OW11241   5.431   2.709   2.980 -0.1810  0.3309  0.6230
 3550SOL    HW111242   5.465   2.620   2.974  0.3227  0.4929  0.9809
 3550SOL    HW211243   5.378   2.709   3.061 -1.1498  0.0473  0.0057
 3551SOL     OW11244   6.189   0.669   2.097 -0.1793  0.0661 -0.1571
 3551SOL    HW111245   6.168   0.633   2.010 -1.9587 -0.4962  0.4513
 3551SOL    HW211246   6.165   0.599   2.158  1.2766  0.3609  0.8023
 3552SOL     OW11247   0.287   1.119   2.313 -0.4282  0.4895 -0.0121
 3552SOL    HW111248   0.221   1.050   2.303 -0.7398  0.3715  2.4245
 3552SOL    HW211249   0.370   1.073   2.310 -0.5251  0.3449 -0.7678
 3553SOL     OW11250   6.689   5.333   2.531 -0.0888 -0.1328 -0.6702
 3553SOL    HW111251   6.704   5.401   2.597 -0.4061  1.5015 -2.2052
 3553SOL    HW211252   6.605   5.355   2.492  0.9187  0.0700 -2.8653
 3554SOL     OW11253   6.695   4.658   0.167  0.0575 -0.1303 -0.3166
 3554SOL    HW111254   6.621   4.659   0.228  0.0045 -1.5291 -0.3204
 3554SOL    HW211255   6.665   4.708   0.091 -0.0295  1.2749  0.6049
 3555SOL     OW11256   6.120   2.882   1.739  0.3480  1.0223 -0.2979
 3555SOL    HW111257   6.206   2.913   1.766  0.6973  1.6447 -2.0087
 3555SOL    HW211258   6.110   2.913   1.649 -1.4457  0.5005 -0.3230
 3556SOL     OW11259   1.594   0.485   2.345 -0.0509  0.4766  0.4703
 3556SOL    HW111260   1.517   0.508   2.292  0.2872 -0.7169 -0.5995
 3556SOL    HW211261   1.597   0.389   2.342  1.5002  0.5056  0.4630
 3557SOL     OW11262   4.988   0.626   3.281  0.0646 -0.3321  0.4867
 3557SOL    HW111263   5.003   0.696   3.345 -1.6436  0.9517 -0.4228
 3557SOL    HW211264   4.918   0.573   3.320 -0.0472 -0.3404  0.2757
 3558SOL     OW11265   6.432   5.214   1.929 -0.3725 -0.1241 -0.1165
 3558SOL    HW111266   6.406   5.287   1.873 -0.0229  0.1841  0.1141
 3558SOL    HW211267   6.519   5.189   1.897 -0.4456 -0.3659 -0.1261
 3559SOL     OW11268   6.245   4.959   3.092 -0.0515  0.3137 -0.3194
 3559SOL    HW111269   6.210   5.041   3.058 -1.2592 -0.2373 -0.4554
 3559SOL    HW211270   6.244   4.899   3.018  0.1682 -0.0271 -0.0519
 3560SOL     OW11271   0.064   2.497   3.210  0.4061  0.2043  0.2944
 3560SOL    HW111272   0.050   2.590   3.193  0.3570  0.3898  1.2890
 3560SOL    HW211273   0.037   2.453   3.129  0.8093  1.0750 -0.3298
 3561SOL     OW11274   5.666   0.343   0.779  0.5087 -0.0421  0.7093
 3561SOL    HW111275   5.665   0.421   0.723  2.2873 -0.7416 -0.3564
 3561SOL    HW211276   5.604   0.284   0.737 -1.3469  0.9708  1.8806
 3562SOL     OW11277   6.533   1.454   1.952  0.4621  0.5882 -0.1508
 3562SOL    HW111278   6.478   1.503   2.013  2.8113  2.0865  0.8919
 3562SOL    HW211279   6.543   1.368   1.993 -0.2124  0.6513  0.1643
 3563SOL     OW11280   6.827   2.864   0.659 -0.1082  0.3134 -0.0658
 3563SOL    HW111281   6.770   2.928   0.616 -0.4392 -0.3445 -0.6286
 3563SOL    HW211282   6.873   2.821   0.587  1.8773  1.5053  0.4143
 3564SOL     OW11283   5.888   0.795   0.815 -0.0537 -0.1401 -0.3159
 3564SOL    HW111284   5.951   0.725   0.830  2.1208  1.6699 -0.4709
 3564SOL    HW211285   5.807   0.750   0.791  1.0971 -2.5738  0.0825
 3565SOL     OW11286   6.080   2.665   3.006  0.0518  0.1199  0.1075
 3565SOL    HW111287   6.124   2.691   3.086  1.5143 -0.6424 -0.4072
 3565SOL    HW211288   6.147   2.618   2.956 -0.5888  1.1863 -1.8821
 3566SOL     OW11289   6.218   1.716   2.190 -0.1108  0.6934  0.0639
 3566SOL    HW111290   6.141   1.704   2.136 -0.6640 -0.3029  1.0276
 3566SOL    HW211291   6.185   1.716   2.280  1.1855 -2.1158  0.6511
 3567SOL     OW11292   6.193   3.335   2.250  1.1240  0.7507  0.6426
 3567SOL    HW111293   6.227   3.400   2.189  2.7654 -0.5440  0.1242
 3567SOL    HW211294   6.233   3.358   2.334  1.0867  0.8475  0.6347
 3568SOL     OW11295   5.101   1.009   1.383  0.0341  0.1137  0.0862
 3568SOL    HW111296   5.179   0.988   1.333  0.3327 -0.3623  0.7295
 3568SOL    HW211297   5.028   0.990   1.324  0.3894 -0.0916 -0.2889
 3569SOL     OW11298   4.994   1.043   3.155 -0.1053  0.4980 -0.0764
 3569SOL    HW111299   5.055   1.061   3.227  0.4363  0.7751 -0.5985
 3569SOL    HW211300   5.033   0.970   3.108 -1.1333 -0.5693  0.6758
 3570SOL     OW11301   0.986   1.633   2.108 -0.2286 -0.3628  0.0594
 3570SOL    HW111302   1.045   1.623   2.184 -0.0456  1.6013  0.2266
 3570SOL    HW211303   0.999   1.724   2.080 -3.6433  0.4089  0.5145
 3571SOL     OW11304   6.320   1.670   3.080  0.2065  0.2633 -0.2955
 3571SOL    HW111305   6.273   1.668   2.996  2.1196 -0.6015 -1.4183
 3571SOL    HW211306   6.252   1.683   3.145 -1.4786 -0.0754 -1.9007
 3572SOL     OW11307   6.069   0.585   1.816 -0.0100  0.3409 -0.0048
 3572SOL    HW111308   5.979   0.617   1.825 -0.3772 -0.1310 -1.6504
 3572SOL    HW211309   6.116   0.657   1.775 -0.1306 -0.1305 -0.9916
 3573SOL     OW11310   6.556   5.084   3.369  0.2237 -0.0847  0.4078
 3573SOL    HW111311   6.574   5.050   3.282  0.4963  1.8095 -0.3247
 3573SOL    HW211312   6.528   5.008   3.420  1.4097 -1.4648 -0.9419
 3574SOL     OW11313   1.062   5.373   2.407  0.0296  0.1906  0.6878
 3574SOL    HW111314   1.040   5.282   2.385 -0.5016  0.6238 -0.7126
 3574SOL    HW211315   0.982   5.408   2.446  0.2248  0.0797  1.2000
 3575SOL     OW11316   4.228   4.281   2.515  0.0644  0.3092 -0.4361
 3575SOL    HW111317   4.137   4.278   2.486  0.6104  2.9113 -2.9200
 3575SOL    HW211318   4.223   4.312   2.605 -1.5197  0.4712 -0.5466
 3576SOL     OW11319   7.158   0.203   2.946 -0.1639  0.2002  0.5684
 3576SOL    HW111320   7.222   0.133   2.955  1.0055  1.1525 -0.1048
 3576SOL    HW211321   7.110   0.182   2.866  0.4305  0.3477  0.1665
 3577SOL     OW11322   0.385   1.216   0.030  0.3909  0.3502 -0.0445
 3577SOL    HW111323   0.448   1.236  -0.039  0.1790 -0.2124 -0.4145
 3577SOL    HW211324   0.350   1.301   0.056  1.7252  0.7300  0.5869
 3578SOL     OW11325   7.357   2.865   1.779 -0.2199  0.0691  0.5464
 3578SOL    HW111326   7.376   2.834   1.691 -0.1938  1.1508  0.1609
 3578SOL    HW211327   7.266   2.891   1.777 -0.0134  0.8099  0.6216
 3579SOL     OW11328   5.189   5.258   0.064 -0.1413 -0.0161 -0.3419
 3579SOL    HW111329   5.249   5.326   0.094  0.8483 -0.3971 -1.3760
 3579SOL    HW211330   5.247   5.189   0.030 -1.1048 -1.3935  0.6979
 3580SOL     OW11331   6.810   2.179   1.896  0.1457 -0.0010 -0.1848
 3580SOL    HW111332   6.725   2.136   1.905  0.0098  0.3331  0.1739
 3580SOL    HW211333   6.871   2.109   1.872 -0.3209 -0.1599 -0.9061
 3581SOL     OW11334   1.970   4.980   1.489  0.2385  0.0253 -0.2453
 3581SOL    HW111335   1.964   4.936   1.404  2.5438  0.1284 -0.5450
 3581SOL    HW211336   2.006   4.913   1.547  0.1861  0.4093  0.2327
 3582SOL     OW11337   6.579   0.904   2.769 -0.5836  0.7020  0.5031
 3582SOL    HW111338   6.549   0.972   2.709  1.3165 -0.6151 -2.1701
 3582SOL    HW211339   6.672   0.892   2.747  0.0778 -0.2785  3.3902
 3583SOL     OW11340   4.476   4.087   0.326  0.7682 -0.1876 -0.1302
 3583SOL    HW111341   4.526   4.016   0.367  1.2069  0.5142  0.5891
 3583SOL    HW211342   4.530   4.114   0.252 -0.5867 -2.2646 -2.0129
 3584SOL     OW11343   5.535   5.118   2.114 -0.6053  0.3641 -0.1342
 3584SOL    HW111344   5.507   5.145   2.026  0.2876  0.3255 -0.4394
 3584SOL    HW211345   5.529   5.023   2.112  0.1331  0.3124 -0.4191
 3585SOL     OW11346   6.314   4.870   0.743 -0.0841  0.0470  0.3276
 3585SOL    HW111347   6.327   4.786   0.699  1.1627  0.8224 -0.8546
 3585SOL    HW211348   6.402   4.899   0.767 -0.6019  0.4038  1.9785
 3586SOL     OW11349   6.698   3.675   1.277  0.3545 -0.4586 -0.0988
 3586SOL    HW111350   6.621   3.624   1.252  1.5347 -4.3503  3.1928
 3586SOL    HW211351   6.772   3.618   1.257  1.8266  0.0893  3.1289
 3587SOL     OW11352   7.221   0.590   2.070  0.3712 -0.7401 -0.1080
 3587SOL    HW111353   7.156   0.602   2.001  0.3233 -1.1859 -0.1477
 3587SOL    HW211354   7.256   0.502   2.054  0.1823 -0.9468  0.5811
 3588SOL     OW11355   5.615   1.155   3.417 -0.2211  0.3467  0.4633
 3588SOL    HW111356   5.612   1.145   3.512  3.0275  0.9205  0.7606
 3588SOL    HW211357   5.651   1.071   3.386 -1.6259  0.0109 -0.3584
 3589SOL     OW11358   7.251   1.434   0.452 -0.3052  0.3298 -0.5533
 3589SOL    HW111359   7.214   1.348   0.431 -0.7578  0.2090  0.6682
 3589SOL    HW211360   7.284   1.467   0.368  1.4689 -1.7737 -0.7763
 3590SOL     OW11361   6.193   0.501   1.266  0.0494 -0.5679 -0.4044
 3590SOL    HW111362   6.202   0.583   1.217 -1.9957  1.4867  2.3807
 3590SOL    HW211363   6.105   0.470   1.245  1.2524 -2.9308 -2.4726
 3591SOL     OW11364   6.610   2.308   2.575  0.0410 -0.0094 -0.0377
 3591SOL    HW111365   6.574   2.395   2.595  1.2898 -0.0956  3.1659
 3591SOL    HW211366   6.586   2.293   2.483  0.2692  3.9436 -0.9554
 3592SOL     OW11367   5.856   5.100   1.641 -0.5629  0.0520 -0.0759
 3592SOL    HW111368   5.766   5.086   1.669 -0.4827 -0.6891 -0.1816
 3592SOL    HW211369   5.909   5.041   1.695 -0.1884  0.1414 -0.3368
 3593SOL     OW11370   6.315   3.781   0.206 -0.3900 -0.2182 -0.0478
 3593SOL    HW111371   6.268   3.697   0.213  1.5402 -1.4505 -0.9804
 3593SOL    HW211372   6.331   3.791   0.112 -0.7596  1.3167  0.0399
 3594SOL     OW11373   6.430   0.544   1.412 -0.0487 -0.5516 -0.2369
 3594SOL    HW111374   6.343   0.535   1.373 -0.2868  0.3573  0.0524
 3594SOL    HW211375   6.489   0.558   1.338 -0.7487  3.0883 -0.2881
 3595SOL     OW11376   7.034   1.647   2.047  0.1257  0.2451 -0.5983
 3595SOL    HW111377   6.981   1.569   2.066  0.4032 -0.5988 -2.9392
 3595SOL    HW211378   7.114   1.612   2.008 -0.5515  1.7071 -3.5528
 3596SOL     OW11379   6.771   1.047   3.334 -0.4459 -0.0771 -0.0159
 3596SOL    HW111380   6.827   1.061   3.410 -1.1445  1.5266  0.2396
 3596SOL    HW211381   6.700   1.109   3.344 -1.4707 -1.0058 -1.1303
 3597SOL     OW11382   7.353   0.927   0.226 -0.3533 -0.5091  0.3037
 3597SOL    HW111383   7.334   0.939   0.133  0.1470 -1.1810  0.1102
 3597SOL    HW211384   7.359   0.833   0.238 -0.4201 -0.4291  1.0223
 3598SOL     OW11385   6.418   0.226   1.924  0.4491  0.1650  0.4769
 3598SOL    HW111386   6.438   0.285   1.852 -2.6116  1.0430  0.1938
 3598SOL    HW211387   6.409   0.283   2.000  1.8209 -0.5311  1.1908
 3599SOL     OW11388  -0.008   0.638   0.198 -0.1625 -0.0247  0.0932
 3599SOL    HW111389   0.034   0.620   0.283  0.3797  0.3226 -0.0954
 3599SOL    HW211390   0.064   0.665   0.141 -0.6702  0.7233 -0.2026
 3600SOL     OW11391   5.178   0.995   0.932  0.5911 -0.1530 -0.1039
 3600SOL    HW111392   5.096   1.037   0.905  0.2515 -0.8116 -0.1372
 3600SOL    HW211393   5.247   1.052   0.899  0.1403  0.9016  0.7173
 3601SOL     OW11394   7.047   1.569   0.091 -0.2716 -0.3019  1.0109
 3601SOL    HW111395   7.024   1.571  -0.001 -1.4505  2.1564  1.2793
 3601SOL    HW211396   6.995   1.497   0.128 -0.6854 -0.5378 -0.0147
 3602SOL     OW11397   5.651   0.673   2.985 -0.5492  0.3445 -0.3886
 3602SOL    HW111398   5.591   0.726   2.931 -0.6539 -0.4290 -1.0394
 3602SOL    HW211399   5.735   0.679   2.940 -0.6510 -0.3549 -0.6755
 3603SOL     OW11400   0.085   5.183   2.263 -0.0877  0.0785  0.0935
 3603SOL    HW111401   0.114   5.275   2.264  0.3032  0.0289 -2.0928
 3603SOL    HW211402   0.074   5.161   2.355 -0.1189  2.2995  0.6869
 3604SOL     OW11403   7.301   2.807   2.147  0.5285  1.2001 -0.3407
 3604SOL    HW111404   7.315   2.758   2.066 -2.2507  0.9706 -0.7565
 3604SOL    HW211405   7.271   2.741   2.210 -0.2148  1.8439 -0.0045
 3605SOL     OW11406   1.090   2.293   2.494  0.2146 -0.7590 -0.1939
 3605SOL    HW111407   1.000   2.268   2.472  0.4670 -2.1738  0.2951
 3605SOL    HW211408   1.082   2.382   2.530 -0.7943 -0.3137 -1.4295
 3606SOL     OW11409   6.524   1.075   1.432 -0.0104  0.5400  0.2719
 3606SOL    HW111410   6.527   1.036   1.520 -0.9423 -0.1397  0.0137
 3606SOL    HW211411   6.444   1.126   1.430 -0.9376 -0.8675 -0.7346
 3607SOL     OW11412   5.476   2.326   1.559  0.4667 -0.6323 -0.2151
 3607SOL    HW111413   5.449   2.238   1.585 -0.6931  0.1703  1.4431
 3607SOL    HW211414   5.417   2.349   1.487 -2.1774  0.3690  2.1282
 3608SOL     OW11415   5.186   5.089   2.855 -0.8413  0.4068 -0.0264
 3608SOL    HW111416   5.272   5.047   2.858 -0.0557  1.9040 -0.1139
 3608SOL    HW211417   5.147   5.060   2.773  0.4304  1.2029 -0.9502
 3609SOL     OW11418   6.557   0.447   0.326 -0.0969  0.2849  0.1477
 3609SOL    HW111419   6.474   0.430   0.371 -0.2386  1.4490  0.3634
 3609SOL    HW211420   6.535   0.444   0.233 -0.2800  0.1380  0.1946
 3610SOL     OW11421   0.707   1.627   2.106 -0.1915 -0.9050 -0.3818
 3610SOL    HW111422   0.800   1.627   2.080  0.4513  0.4221  1.6970
 3610SOL    HW211423   0.695   1.544   2.152  0.2003 -0.6818  0.1225
 3611SOL     OW11424   6.923   0.852   1.844  0.1165  0.4977 -0.8044
 3611SOL    HW111425   6.925   0.944   1.817 -1.4287  0.8926  0.3098
 3611SOL    HW211426   6.853   0.813   1.792  0.4514  0.0518 -0.9322
 3612SOL     OW11427   6.605   4.296   3.421 -0.2370  0.1839 -0.0558
 3612SOL    HW111428   6.548   4.252   3.484 -0.2732  0.8333  0.3765
 3612SOL    HW211429   6.556   4.373   3.393  1.0569  1.7514  1.6687
 3613SOL     OW11430   5.657   3.674   2.953  0.3167  0.3459 -0.3218
 3613SOL    HW111431   5.689   3.752   2.908 -0.8478 -0.4948 -2.8017
 3613SOL    HW211432   5.691   3.601   2.902  0.8248 -0.8118  1.5574
 3614SOL     OW11433   7.017   4.766   1.296  0.1669  0.0324  0.2607
 3614SOL    HW111434   7.073   4.780   1.220  1.0379  1.1500  1.0609
 3614SOL    HW211435   7.048   4.683   1.333 -0.4938 -0.6963 -0.7665
 3615SOL     OW11436   5.327   1.479   1.912 -0.4678 -0.4275  0.0667
 3615SOL    HW111437   5.313   1.573   1.929 -1.6623 -0.5164 -0.3087
 3615SOL    HW211438   5.422   1.470   1.905 -0.3589  0.9031 -0.6587
 3616SOL     OW11439   5.325   0.337   2.994  0.8621 -0.0696 -0.1858
 3616SOL    HW111440   5.347   0.265   2.935 -0.1258 -0.6263  0.0921
 3616SOL    HW211441   5.327   0.299   3.081 -1.0151 -0.1424 -0.1360
 3617SOL     OW11442   7.045   1.706   2.345 -0.8229  0.0730 -0.0831
 3617SOL    HW111443   7.060   1.637   2.409 -0.8821 -1.9860 -2.1438
 3617SOL    HW211444   6.952   1.698   2.322 -1.2535  1.9607  0.7767
 3618SOL     OW11445   0.210   0.876   3.063 -0.1720 -1.0424  0.0272
 3618SOL    HW111446   0.165   0.920   2.991  1.0527  1.0761  0.4663
 3618SOL    HW211447   0.161   0.795   3.076 -3.1356  0.5599 -0.2791
 3619SOL     OW11448   0.944   2.531   1.952 -0.6564 -0.2298  0.2607
 3619SOL    HW111449   0.869   2.587   1.932 -0.4965  0.1515  0.6961
 3619SOL    HW211450   0.961   2.547   2.045 -0.2649 -0.5934  0.2536
 3620SOL     OW11451   7.212   0.238   1.417  0.5701 -0.2356  0.1913
 3620SOL    HW111452   7.166   0.169   1.465  0.9058 -2.4175 -2.3422
 3620SOL    HW211453   7.143   0.300   1.393 -0.1128 -0.6954  0.9097
 3621SOL     OW11454   7.417   5.343   0.283 -0.2876  0.1227  0.0307
 3621SOL    HW111455   7.475   5.268   0.294  0.9987  1.2887  1.9887
 3621SOL    HW211456   7.334   5.306   0.253 -0.1204 -2.2643  2.1612
 3622SOL     OW11457   7.203   5.166   1.176 -0.4082 -0.0902  0.2224
 3622SOL    HW111458   7.204   5.137   1.267 -2.6081 -1.3103 -0.0837
 3622SOL    HW211459   7.171   5.257   1.179 -1.2264 -0.3847  0.6322
 3623SOL     OW11460   6.124   5.177   3.013  0.3703 -0.0612 -0.8649
 3623SOL    HW111461   6.082   5.242   3.070 -1.0108 -2.2537  0.7842
 3623SOL    HW211462   6.097   5.201   2.925 -1.0663  0.9145 -0.1907
 3624SOL     OW11463   4.206   1.350   0.796  0.3213  0.1134 -0.0737
 3624SOL    HW111464   4.120   1.311   0.787  0.4557 -0.2632  0.2501
 3624SOL    HW211465   4.191   1.433   0.840  0.1939 -0.2482  0.5648
 3625SOL     OW11466   5.569   4.369   3.253  0.0121 -0.3162  0.1055
 3625SOL    HW111467   5.518   4.428   3.308  0.0083  0.1352 -0.3774
 3625SOL    HW211468   5.652   4.415   3.240 -0.2466 -0.1110 -0.8319
 3626SOL     OW11469   3.941   5.054   0.614 -0.3225 -0.1711 -0.1466
 3626SOL    HW111470   3.880   4.981   0.605 -0.5502  0.2203 -2.2675
 3626SOL    HW211471   4.024   5.021   0.580  0.3177 -0.2546  1.4113
 3627SOL     OW11472   7.027   1.314   2.872 -0.2388 -0.9728  0.6924
 3627SOL    HW111473   7.054   1.404   2.890 -0.6688 -0.5875 -0.4803
 3627SOL    HW211474   7.050   1.266   2.951 -2.3621  0.6508  2.4251
 3628SOL     OW11475   5.833   0.084   0.416  0.4190  0.1695 -0.0737
 3628SOL    HW111476   5.840   0.142   0.492  0.7425  0.3699 -0.2553
 3628SOL    HW211477   5.896   0.014   0.435 -0.2984 -0.3651  0.3586
 3629SOL     OW11478   5.940   1.186   0.928  0.0571  1.1196 -0.1129
 3629SOL    HW111479   5.947   1.179   0.833 -1.2180 -0.5958 -0.1306
 3629SOL    HW211480   5.963   1.277   0.947  1.4024  1.2158 -1.9234
 3630SOL     OW11481   6.479   4.002   0.288 -0.8066  0.1966  0.0908
 3630SOL    HW111482   6.428   3.921   0.286 -0.3743 -0.0878  0.5815
 3630SOL    HW211483   6.414   4.072   0.286 -1.3975 -0.1164  3.5095
 3631SOL     OW11484   1.036   2.706   2.698  0.1336  0.3389  0.5880
 3631SOL    HW111485   1.015   2.716   2.791 -0.3230  0.2217  0.5011
 3631SOL    HW211486   1.088   2.783   2.677 -2.0994  1.8747  0.2859
 3632SOL     OW11487   0.280   3.753   1.046  0.0745 -0.4522  0.2300
 3632SOL    HW111488   0.292   3.842   1.079  0.6743 -0.6665  0.6033
 3632SOL    HW211489   0.231   3.708   1.115  1.4578 -0.9419  0.9358
 3633SOL     OW11490   0.363   3.083   2.812  0.6082  0.0020 -0.5764
 3633SOL    HW111491   0.420   3.153   2.844 -0.8939  0.5943  0.9653
 3633SOL    HW211492   0.286   3.129   2.779 -0.1987 -0.8832  0.0162
 3634SOL     OW11493   4.717   4.586   0.146 -0.0657 -0.0368 -0.4505
 3634SOL    HW111494   4.777   4.602   0.219  1.0202  0.3987 -1.4021
 3634SOL    HW211495   4.670   4.669   0.136  0.6998  0.3457 -1.0335
 3635SOL     OW11496   0.534   2.245   2.327  0.3732 -0.5452  0.0445
 3635SOL    HW111497   0.574   2.207   2.249 -1.4912  1.2499 -1.9402
 3635SOL    HW211498   0.440   2.231   2.314 -0.2473  2.7921  0.1498
 3636SOL     OW11499   5.702   1.192   2.593  0.6608 -0.1545 -0.3544
 3636SOL    HW111500   5.728   1.134   2.522 -1.0283 -0.0537 -1.1097
 3636SOL    HW211501   5.620   1.231   2.564  0.0466  0.0956  1.5433
 3637SOL     OW11502   5.850   5.110   2.592 -0.0383 -0.3395  0.0760
 3637SOL    HW111503   5.777   5.162   2.556  0.7096  1.2817  0.8119
 3637SOL    HW211504   5.928   5.146   2.550  0.4645 -1.3109  0.1413
 3638SOL     OW11505   6.219   4.939   0.191 -0.0246  0.0517  0.4306
 3638SOL    HW111506   6.196   5.014   0.136 -1.7172 -0.8161 -0.1265
 3638SOL    HW211507   6.215   4.864   0.131 -1.8276 -0.9100  1.6452
 3639SOL     OW11508   6.657   5.305   1.289 -0.0536 -0.2763 -0.2753
 3639SOL    HW111509   6.629   5.220   1.325  0.0558  0.4417  1.6128
 3639SOL    HW211510   6.747   5.316   1.320  0.6024 -0.2592 -2.0513
 3640SOL     OW11511   6.840   2.805   2.758  0.2343 -0.5897 -0.2860
 3640SOL    HW111512   6.754   2.787   2.795  0.4956 -0.6511  0.3090
 3640SOL    HW211513   6.884   2.720   2.756  1.3088 -0.1837  2.1206
 3641SOL     OW11514   4.975   4.729   3.017  0.5630 -0.4709  0.3611
 3641SOL    HW111515   4.882   4.729   3.041  0.3530 -0.4008 -0.4358
 3641SOL    HW211516   5.019   4.768   3.093 -0.3425  2.2483 -0.4019
 3642SOL     OW11517   6.673   1.297   1.324 -0.2689  0.5698 -0.0937
 3642SOL    HW111518   6.614   1.223   1.338 -0.9055  1.1366  0.2966
 3642SOL    HW211519   6.692   1.330   1.412  0.5653  0.4564 -0.2193
 3643SOL     OW11520   0.884   1.664   1.581 -0.3637  0.9824 -0.4304
 3643SOL    HW111521   0.951   1.656   1.650  0.1678  1.5165 -0.8688
 3643SOL    HW211522   0.803   1.681   1.629 -0.2832 -0.1192  0.1350
 3644SOL     OW11523   6.722   1.474   3.409 -0.0387  0.2965  0.3521
 3644SOL    HW111524   6.665   1.522   3.350  1.9083  1.3166 -0.8138
 3644SOL    HW211525   6.694   1.383   3.402 -1.2193  0.7108 -0.5120
 3645SOL     OW11526   6.797   0.519   2.595 -0.1458 -0.6413  0.1784
 3645SOL    HW111527   6.708   0.489   2.578  0.3856 -1.0905 -2.2985
 3645SOL    HW211528   6.851   0.463   2.539  1.5549  0.4869  0.6263
 3646SOL     OW11529   6.483   3.966   1.944  0.0574 -0.6411 -0.0974
 3646SOL    HW111530   6.555   3.910   1.973  0.1035 -0.1375  0.8294
 3646SOL    HW211531   6.512   4.001   1.860  1.2379  0.1008  0.5797
 3647SOL     OW11532   6.331   4.207   1.125  0.4699  0.0957  0.2159
 3647SOL    HW111533   6.361   4.121   1.096  3.7490  1.8697 -2.2839
 3647SOL    HW211534   6.285   4.243   1.050 -2.1046  0.1656  1.6908
 3648SOL     OW11535   6.413   2.804   2.504  0.2096 -0.1637  0.1477
 3648SOL    HW111536   6.403   2.781   2.412  0.7575 -1.3326  0.3698
 3648SOL    HW211537   6.505   2.828   2.514  0.1417  0.0078  0.3828
 3649SOL     OW11538   5.018   4.450   1.783  0.3780 -0.3098 -0.1969
 3649SOL    HW111539   4.948   4.465   1.720  0.1322 -0.6262  0.0024
 3649SOL    HW211540   5.009   4.521   1.846 -0.6303 -1.1298  0.6043
 3650SOL     OW11541   7.007   1.621   3.288  0.3734 -0.4950  0.7108
 3650SOL    HW111542   6.916   1.630   3.315  0.3397 -1.8013  1.0914
 3650SOL    HW211543   7.004   1.617   3.193  0.2215  1.2272  0.6140
 3651SOL     OW11544   4.783   0.510   3.433  0.1238 -0.0264  0.2454
 3651SOL    HW111545   4.861   0.518   3.489  0.4249 -0.3700 -0.1151
 3651SOL    HW211546   4.719   0.569   3.472  0.0736 -0.7962  1.3940
 3652SOL     OW11547   5.802   1.163   3.090  0.2078 -0.6465  0.2186
 3652SOL    HW111548   5.774   1.079   3.127  0.2605 -0.4431  0.7271
 3652SOL    HW211549   5.729   1.191   3.036 -0.4801 -0.2526  1.3114
 3653SOL     OW11550   6.795   1.563   2.911  0.0739  0.4880  0.0306
 3653SOL    HW111551   6.808   1.648   2.869 -0.1249  0.3892 -0.2405
 3653SOL    HW211552   6.743   1.514   2.848  1.7180 -0.4813 -0.6216
 3654SOL     OW11553   6.036   0.895   3.429 -0.3197 -0.0714 -0.2718
 3654SOL    HW111554   5.950   0.938   3.434  0.5777  2.1669 -2.2146
 3654SOL    HW211555   6.017   0.802   3.437 -2.9699  0.3213 -1.0925
 3655SOL     OW11556   0.176   1.503   3.174 -0.7409  0.1497  0.1487
 3655SOL    HW111557   0.246   1.440   3.158 -1.7987 -0.9042 -0.4781
 3655SOL    HW211558   0.208   1.584   3.135  1.0010  0.2794  1.7016
 3656SOL     OW11559   6.106   4.845   1.413 -0.0650  0.0847  0.1357
 3656SOL    HW111560   6.063   4.930   1.405  2.1863  1.2220 -0.9630
 3656SOL    HW211561   6.075   4.794   1.338  0.7532  1.0373 -0.8782
 3657SOL     OW11562   6.128   0.552   0.237  0.0959  0.1042 -0.1602
 3657SOL    HW111563   6.097   0.597   0.316 -0.1766 -0.9629  0.3648
 3657SOL    HW211564   6.183   0.481   0.270  0.3870 -0.0533 -0.9598
 3658SOL     OW11565   4.982   4.809   0.968  0.2771  0.0094  0.2234
 3658SOL    HW111566   4.930   4.785   1.044  0.1261 -0.6920 -0.0891
 3658SOL    HW211567   5.062   4.756   0.976  0.2176 -0.1425 -0.1549
 3659SOL     OW11568   6.375   4.325   0.104 -0.2561  0.0079 -0.0403
 3659SOL    HW111569   6.405   4.377   0.178 -0.7932  1.2326 -0.6432
 3659SOL    HW211570   6.341   4.390   0.042 -0.2482 -1.0167 -1.1535
 3660SOL     OW11571   5.861   1.042   2.745  0.4045  0.0077  0.2655
 3660SOL    HW111572   5.872   1.069   2.836 -1.0016 -0.2777  0.5427
 3660SOL    HW211573   5.802   1.108   2.707 -0.2082 -0.6864 -0.0173
 3661SOL     OW11574   5.874   2.362   3.494 -0.0541 -0.1090  0.3425
 3661SOL    HW111575   5.867   2.388   3.402  1.7808  1.8798  0.6705
 3661SOL    HW211576   5.948   2.302   3.496 -0.3255 -0.4408  0.4783
 3662SOL     OW11577   4.466   5.212   2.915  0.5855  0.2299  0.2317
 3662SOL    HW111578   4.383   5.176   2.946  0.8326 -0.4315  0.1435
 3662SOL    HW211579   4.460   5.306   2.934 -1.3357  0.7139 -2.3327
 3663SOL     OW11580   5.065   1.564   0.158 -0.4636  0.2604 -0.4816
 3663SOL    HW111581   4.999   1.622   0.120 -1.0355 -0.3864 -0.4919
 3663SOL    HW211582   5.128   1.624   0.200 -1.1467  0.8746 -0.3123
 3664SOL     OW11583   7.159   1.534   2.538  0.1937  0.0387 -0.4068
 3664SOL    HW111584   7.102   1.457   2.544 -0.4194  0.4572 -0.8022
 3664SOL    HW211585   7.226   1.519   2.606  0.4521 -1.1316 -0.8951
 3665SOL     OW11586   1.044   5.249   1.282  0.6067 -0.5501 -0.1997
 3665SOL    HW111587   1.001   5.277   1.201  1.2326  1.9076  0.2398
 3665SOL    HW211588   0.972   5.237   1.344  0.2953  0.1188 -0.4189
 3666SOL     OW11589   0.268   2.204   2.131  0.1856  0.0059  0.3230
 3666SOL    HW111590   0.180   2.189   2.164 -0.6869  0.2643 -1.7162
 3666SOL    HW211591   0.307   2.116   2.125 -0.9004 -0.4189 -1.1525
 3667SOL     OW11592   4.591   0.768   0.568  0.7687  0.4605 -0.2133
 3667SOL    HW111593   4.616   0.717   0.645  1.5980  0.5220 -0.4391
 3667SOL    HW211594   4.495   0.768   0.570  0.7270 -1.3499 -0.3555
 3668SOL     OW11595   6.565   2.125   1.991  0.1986 -0.0529 -0.0192
 3668SOL    HW111596   6.537   2.190   1.927  2.1511 -0.6292 -1.5691
 3668SOL    HW211597   6.494   2.062   1.995  0.2667 -0.3400 -2.1419
 3669SOL     OW11598   5.289   3.214   0.288 -0.3281 -0.4339  0.1050
 3669SOL    HW111599   5.265   3.122   0.299  1.2407 -0.8293  0.3987
 3669SOL    HW211600   5.366   3.212   0.231 -1.6097  0.8728 -1.7859
 3670SOL     OW11601   5.715   1.904   0.629  0.2279 -0.3120 -0.0183
 3670SOL    HW111602   5.736   1.978   0.572  1.5648 -1.8662 -1.6761
 3670SOL    HW211603   5.801   1.866   0.650 -0.3385 -0.6510  1.8983
 3671SOL     OW11604   6.844   1.816   2.779 -0.2599 -0.5656  0.2176
 3671SOL    HW111605   6.818   1.907   2.792  0.9055 -0.3978  1.6881
 3671SOL    HW211606   6.814   1.795   2.690  0.1712  1.5103 -0.4853
 3672SOL     OW11607   5.802   0.946   0.055  0.1155  0.0166  0.0159
 3672SOL    HW111608   5.746   1.001   0.110 -0.8242  0.4474 -1.3273
 3672SOL    HW211609   5.776   0.856   0.077  0.0217  0.1700  0.5423
 3673SOL     OW11610   0.272   4.903   0.199 -0.2551  0.1740 -0.3341
 3673SOL    HW111611   0.291   4.953   0.119  0.0157  0.6211  0.0060
 3673SOL    HW211612   0.315   4.818   0.184  1.6371  0.9833  0.1986
 3674SOL     OW11613   5.878   0.650   1.431  0.3706 -0.2265  0.8181
 3674SOL    HW111614   5.950   0.685   1.378  0.2292  2.1645  2.0638
 3674SOL    HW211615   5.903   0.558   1.447  2.3282  0.0858 -0.1155
 3675SOL     OW11616   6.929   3.535   1.254  0.4515  0.3969  0.1857
 3675SOL    HW111617   7.014   3.562   1.289  0.0533 -0.6816  2.1145
 3675SOL    HW211618   6.927   3.440   1.266 -0.5774  0.2522 -0.9124
 3676SOL     OW11619   6.042   0.360   3.272  0.0743  0.0436  0.1243
 3676SOL    HW111620   6.084   0.444   3.252  0.4039  0.2661  1.5767
 3676SOL    HW211621   5.961   0.385   3.317  0.1055 -0.4062  0.4305
 3677SOL     OW11622   6.132   4.895   3.406 -0.9106 -0.1726 -0.1309
 3677SOL    HW111623   6.121   4.982   3.445 -0.5634  1.3914 -3.2158
 3677SOL    HW211624   6.058   4.844   3.439 -1.8929  1.7137  0.7204
 3678SOL     OW11625   4.814   5.113   0.534 -0.0909 -0.2779  0.1756
 3678SOL    HW111626   4.764   5.035   0.512  2.2175 -2.1933  1.2558
 3678SOL    HW211627   4.903   5.081   0.546  1.1593  2.7269 -0.3368
 3679SOL     OW11628   1.990   2.033   0.070  0.0489 -0.0133  0.0868
 3679SOL    HW111629   1.940   2.078   0.138 -0.5591  0.2321 -0.5225
 3679SOL    HW211630   2.076   2.077   0.071  0.1989 -0.3075  0.9916
 3680SOL     OW11631   5.565   0.878   2.838  0.5466 -0.6249  0.3595
 3680SOL    HW111632   5.659   0.896   2.831  0.2631  0.7829 -0.0334
 3680SOL    HW211633   5.524   0.931   2.770 -0.3881 -2.8250 -0.9211
 3681SOL     OW11634   0.288   1.438   1.322 -0.5053  0.1338 -0.4485
 3681SOL    HW111635   0.336   1.412   1.400 -2.9095 -0.5756  0.9127
 3681SOL    HW211636   0.304   1.368   1.259 -0.0822 -0.2612  0.0923
 3682SOL     OW11637   1.198   1.315   1.686 -0.7202 -0.5208  0.8052
 3682SOL    HW111638   1.175   1.370   1.761  1.3555  1.6127 -0.0215
 3682SOL    HW211639   1.120   1.319   1.629 -0.4272  2.2458  0.4521
 3683SOL     OW11640   4.589   2.350   2.797  0.0651 -0.7072  0.2096
 3683SOL    HW111641   4.676   2.344   2.759  0.1925 -1.0136  0.5465
 3683SOL    HW211642   4.529   2.346   2.723  0.3492 -0.0147 -0.0668
 3684SOL     OW11643   6.460   2.899   3.183  0.1717  0.2372 -0.0143
 3684SOL    HW111644   6.520   2.835   3.221 -1.2830 -0.3026  1.5298
 3684SOL    HW211645   6.385   2.898   3.242 -1.0787  1.3540 -1.5113
 3685SOL     OW11646   5.954   0.599   3.499 -0.1665 -0.0423 -0.0971
 3685SOL    HW111647   6.008   0.543   3.554  1.3148 -1.2359 -2.6005
 3685SOL    HW211648   5.894   0.539   3.454 -1.6857  0.9504  0.5014
 3686SOL     OW11649   5.684   5.396   1.242  0.0876  0.1810  0.2932
 3686SOL    HW111650   5.623   5.417   1.312  0.5315 -1.3900  1.1811
 3686SOL    HW211651   5.711   5.305   1.258  0.8210  0.0397 -1.4414
 3687SOL     OW11652   6.849   0.550   2.921 -0.2765 -0.8131 -0.2134
 3687SOL    HW111653   6.833   0.476   2.980 -0.5635 -1.9969 -1.7146
 3687SOL    HW211654   6.778   0.546   2.858 -0.5761  1.0778 -0.0556
 3688SOL     OW11655   0.394   2.206   3.193  0.0207  0.5959  0.2688
 3688SOL    HW111656   0.473   2.200   3.140 -0.0865  1.8301 -0.0532
 3688SOL    HW211657   0.344   2.278   3.154 -1.6580 -0.6716 -0.0664
 3689SOL     OW11658   6.933   0.336   2.425  0.0474  0.3266  0.3228
 3689SOL    HW111659   6.998   0.387   2.376 -0.5911 -0.1389 -1.0594
 3689SOL    HW211660   6.897   0.275   2.361 -1.6922  0.5064  1.0531
 3690SOL     OW11661   5.681   2.799   1.518 -0.0202 -0.3245 -0.1120
 3690SOL    HW111662   5.706   2.880   1.475 -1.4549 -0.5326 -1.4179
 3690SOL    HW211663   5.649   2.827   1.604 -1.3135  0.6099 -0.8687
 3691SOL     OW11664   6.382   0.647   0.628 -0.7157 -0.3999 -0.2348
 3691SOL    HW111665   6.345   0.704   0.560 -1.0845 -1.9165 -1.3707
 3691SOL    HW211666   6.452   0.698   0.667 -2.1106  1.4465 -0.0454
 3692SOL     OW11667   0.770   0.011   2.269 -0.2803  0.0693 -0.5086
 3692SOL    HW111668   0.780  -0.070   2.218 -0.1422  1.0014 -2.0063
 3692SOL    HW211669   0.686  -0.001   2.315 -0.8460 -0.4323 -1.6392
 3693SOL     OW11670   6.957   4.549   0.458  0.6938 -0.3000  0.0538
 3693SOL    HW111671   6.914   4.619   0.508 -2.0236 -0.8428 -1.3581
 3693SOL    HW211672   7.045   4.544   0.496 -0.0014  1.8103  2.2281
 3694SOL     OW11673   4.137   0.944   3.296  0.7412 -0.8100 -0.0204
 3694SOL    HW111674   4.148   0.960   3.390 -1.0172  2.2816 -0.2260
 3694SOL    HW211675   4.216   0.980   3.256 -0.1910  1.5415  0.0786
 3695SOL     OW11676   7.180   0.895   2.176  0.3757 -0.2112 -0.4164
 3695SOL    HW111677   7.158   0.886   2.083  0.2299  0.0143 -0.4054
 3695SOL    HW211678   7.239   0.821   2.194 -1.6664 -1.8566 -0.0475
 3696SOL     OW11679   7.084   2.947   1.792  0.0806 -0.0264 -0.6313
 3696SOL    HW111680   7.011   2.896   1.827 -0.0356  0.7699  0.3474
 3696SOL    HW211681   7.133   2.975   1.870  0.2014  1.2464 -1.1434
 3697SOL     OW11682   7.004   0.452   0.926 -0.0805 -0.1604  0.2314
 3697SOL    HW111683   7.069   0.382   0.930 -0.2624 -0.5515 -2.2333
 3697SOL    HW211684   7.054   0.530   0.903 -0.3951 -0.4015 -1.3653
 3698SOL     OW11685   5.090   4.078   3.063  0.0466  0.9138  0.3191
 3698SOL    HW111686   5.059   4.039   2.981 -1.3183  0.8061  0.8541
 3698SOL    HW211687   5.010   4.111   3.105  0.6091  0.2781  1.9577
 3699SOL     OW11688   0.367   3.624   2.810 -0.9464 -0.0168  0.5780
 3699SOL    HW111689   0.314   3.564   2.862 -1.3421  0.1016  0.3124
 3699SOL    HW211690   0.342   3.607   2.719 -0.5916  0.0974  0.4540
 3700SOL     OW11691   0.155   1.924   2.415  0.2129 -0.0591 -0.1498
 3700SOL    HW111692   0.109   1.883   2.489 -0.6971  1.9422  0.4592
 3700SOL    HW211693   0.229   1.866   2.398  1.3374  0.1301  3.3328
 3701SOL     OW11694   0.692   2.710   1.670 -0.0672 -0.6183  0.2409
 3701SOL    HW111695   0.785   2.699   1.651 -0.6237 -0.9223 -2.6527
 3701SOL    HW211696   0.651   2.629   1.639 -1.6344  0.7052 -1.3704
 3702SOL     OW11697   6.016   2.035   3.299 -0.1817  0.6095  0.1288
 3702SOL    HW111698   6.103   2.004   3.324  0.0538  1.5175  0.4621
 3702SOL    HW211699   5.968   2.038   3.382 -1.0435 -1.3594 -0.2278
 3703SOL     OW11700   6.588   1.881   1.205 -0.2705 -0.5044 -0.0543
 3703SOL    HW111701   6.677   1.908   1.228  0.1500 -3.1888  1.9670
 3703SOL    HW211702   6.532   1.944   1.251  0.5045  1.2862 -1.4415
 3704SOL     OW11703   6.621   0.760   0.704  0.4629  0.0922 -0.1600
 3704SOL    HW111704   6.704   0.712   0.708 -0.0728 -0.7491  1.3610
 3704SOL    HW211705   6.643   0.850   0.728  0.9040 -0.1749  0.4402
 3705SOL     OW11706   7.407   4.082   1.449  0.1627 -0.1987  0.1731
 3705SOL    HW111707   7.482   4.025   1.462  0.3053 -0.0680 -0.0649
 3705SOL    HW211708   7.354   4.071   1.528  0.3250 -0.4518  0.2464
 3706SOL     OW11709   3.639   3.888   2.065  0.0547 -0.3033 -0.5498
 3706SOL    HW111710   3.695   3.930   2.131 -0.0832 -0.5315 -0.2826
 3706SOL    HW211711   3.689   3.893   1.984  0.2117  0.0165 -0.4352
 3707SOL     OW11712   7.016   3.086   2.719  0.2261 -0.2699  0.4976
 3707SOL    HW111713   6.931   3.069   2.761  0.1463 -3.0623 -0.5628
 3707SOL    HW211714   7.015   3.032   2.640  1.1787  3.1795 -2.1434
 3708SOL     OW11715   4.514   3.189   3.342 -0.0542  0.4762  0.2370
 3708SOL    HW111716   4.561   3.115   3.380  0.9294  1.7921  1.7215
 3708SOL    HW211717   4.574   3.263   3.352 -1.8173  1.9086  0.7696
 3709SOL     OW11718   1.338   4.408   2.476 -0.0515 -0.6893 -0.2663
 3709SOL    HW111719   1.336   4.404   2.380 -0.0066  1.7106 -0.4475
 3709SOL    HW211720   1.277   4.479   2.497 -1.7051 -2.5582  1.6753
 3710SOL     OW11721   5.239   2.937   3.336 -0.1964  0.3343 -0.1902
 3710SOL    HW111722   5.329   2.953   3.306  0.3995 -0.3293  1.1252
 3710SOL    HW211723   5.230   2.842   3.334 -1.3054  0.4448 -1.4386
 3711SOL     OW11724   5.175   3.708   2.560  0.1962  0.2556 -0.2023
 3711SOL    HW111725   5.202   3.616   2.557  1.6171  0.6425 -0.3244
 3711SOL    HW211726   5.213   3.746   2.481 -0.7896  0.8542 -0.3987
 3712SOL     OW11727   5.475   3.744   0.070  0.3599  0.1758  0.4657
 3712SOL    HW111728   5.402   3.762   0.130  0.2459  0.6315  0.1913
 3712SOL    HW211729   5.450   3.787  -0.012 -0.4114 -2.0789 -0.5584
 3713SOL     OW11730   4.829   1.588   2.548 -0.2249  0.0655 -0.4374
 3713SOL    HW111731   4.745   1.593   2.502 -0.7361  0.8425  0.5381
 3713SOL    HW211732   4.818   1.644   2.624  1.7040  1.4715 -1.1020
 3714SOL     OW11733   0.121   2.479   2.511  0.6215 -0.1846 -0.4806
 3714SOL    HW111734   0.214   2.463   2.495  0.7891  0.9791 -0.7486
 3714SOL    HW211735   0.076   2.427   2.443  1.1690  0.9656 -1.7688
 3715SOL     OW11736   7.224   2.926   1.291  0.3560 -0.4272  0.1835
 3715SOL    HW111737   7.313   2.957   1.307 -0.2087  1.3880  0.0750
 3715SOL    HW211738   7.176   2.947   1.371 -0.2004 -0.4235 -0.1397
 3716SOL     OW11739   6.394   2.381   2.067  0.0075  0.2010  0.4213
 3716SOL    HW111740   6.319   2.363   2.010  0.3082 -1.5764  0.5231
 3716SOL    HW211741   6.452   2.436   2.014 -1.1190  1.2151  0.1759
 3717SOL     OW11742   6.682   1.819   0.559  0.3928  0.2628  0.2058
 3717SOL    HW111743   6.747   1.824   0.488  0.5254  3.7973  0.3969
 3717SOL    HW211744   6.601   1.794   0.515  0.8164  0.8333 -0.9437
 3718SOL     OW11745   5.480   4.399   0.561 -0.0625  0.1092  0.5589
 3718SOL    HW111746   5.395   4.359   0.582 -0.0535 -0.2615 -0.0804
 3718SOL    HW211747   5.459   4.470   0.500  0.1564 -0.5163 -0.2629
 3719SOL     OW11748   4.842   4.530   2.170 -0.1181 -0.8248 -0.4114
 3719SOL    HW111749   4.856   4.444   2.130 -0.7241 -1.0990 -0.0527
 3719SOL    HW211750   4.795   4.580   2.103 -0.6695 -1.1124 -0.2456
 3720SOL     OW11751   0.079   2.404   1.318 -0.1685 -0.5524 -0.1585
 3720SOL    HW111752   0.051   2.352   1.394  0.9730 -0.2625  0.4907
 3720SOL    HW211753   0.050   2.353   1.242 -3.9058  0.4749  0.3483
 3721SOL     OW11754   6.945   1.702   0.964  0.5818 -0.0912  0.7020
 3721SOL    HW111755   6.934   1.613   0.931  0.2128 -0.8698  2.7401
 3721SOL    HW211756   7.027   1.733   0.924 -0.0023 -0.7947 -1.1143
 3722SOL     OW11757   4.949   3.855   2.264  0.0798  0.3135  0.2413
 3722SOL    HW111758   4.878   3.805   2.224 -0.7488  1.2128  0.5463
 3722SOL    HW211759   5.024   3.795   2.264 -0.7184 -0.7104  0.0544
 3723SOL     OW11760   2.860   3.937   2.625  0.0926 -0.1616 -0.3073
 3723SOL    HW111761   2.922   3.897   2.564  1.4954  0.8561  0.3866
 3723SOL    HW211762   2.793   3.977   2.570 -0.4446 -1.9894 -1.0551
 3724SOL     OW11763   0.268   4.809   1.167 -0.1988  0.5383  0.5934
 3724SOL    HW111764   0.328   4.821   1.240  1.0275 -0.7932 -0.1295
 3724SOL    HW211765   0.321   4.765   1.100 -2.8476 -4.1591  1.2273
 3725SOL     OW11766   0.827   1.991   3.079 -0.1450 -0.2277  0.3508
 3725SOL    HW111767   0.756   1.928   3.088  0.0954 -0.5274  0.1845
 3725SOL    HW211768   0.859   1.979   2.989 -0.3462  0.3973  0.1933
 3726SOL     OW11769   7.409   3.946   2.457 -0.4271 -0.5030 -0.1518
 3726SOL    HW111770   7.457   3.864   2.446  1.4644  0.7208 -1.7727
 3726SOL    HW211771   7.397   3.979   2.368 -1.1274  0.9889  0.4618
 3727SOL     OW11772   7.234   3.064   0.615  0.1412  0.1591 -0.4150
 3727SOL    HW111773   7.288   3.009   0.671 -0.2903  0.8953  0.7681
 3727SOL    HW211774   7.207   3.006   0.543  1.2058 -0.6335 -0.2028
 3728SOL     OW11775   3.419   4.393   2.246 -0.2143  0.3943 -0.9720
 3728SOL    HW111776   3.326   4.382   2.226 -0.5369  0.0828  0.5229
 3728SOL    HW211777   3.424   4.384   2.342  1.1842  1.6358 -0.8886
 3729SOL     OW11778   7.192   0.251   0.216  0.2965 -0.2229 -0.1906
 3729SOL    HW111779   7.102   0.284   0.214 -0.1082 -1.2858 -0.4825
 3729SOL    HW211780   7.183   0.157   0.198  1.4561 -0.3674 -0.0853
 3730SOL     OW11781   5.567   2.002   3.339 -0.2688  0.2148  0.0922
 3730SOL    HW111782   5.577   2.044   3.253 -1.0931  1.2596  0.5032
 3730SOL    HW211783   5.473   2.000   3.354 -0.3277 -2.2492 -0.1231
 3731SOL     OW11784   5.366   4.565   0.103  0.4729 -0.1433  0.2570
 3731SOL    HW111785   5.443   4.603   0.062  1.0175 -1.0961  0.3619
 3731SOL    HW211786   5.398   4.486   0.146 -0.4823 -0.3191  0.6851
 3732SOL     OW11787   6.963   2.339   0.300  0.0533 -0.2639  0.5822
 3732SOL    HW111788   6.879   2.293   0.303 -0.2844  0.2887 -0.1971
 3732SOL    HW211789   6.969   2.372   0.211  0.2477  1.3037  1.1536
 3733SOL     OW11790   6.107   2.156   0.857  0.0065 -0.0920 -0.2085
 3733SOL    HW111791   6.152   2.156   0.772 -0.8348  0.4894 -0.6648
 3733SOL    HW211792   6.178   2.167   0.921  0.4615  1.7398 -0.9689
 3734SOL     OW11793   6.324   5.133   0.600 -0.4356 -0.2942  0.8403
 3734SOL    HW111794   6.387   5.094   0.661  4.0096  1.1545 -2.3118
 3734SOL    HW211795   6.287   5.058   0.554  2.2280 -1.2494  0.0345
 3735SOL     OW11796   5.708   3.519   2.737 -0.0359  0.2869  0.3464
 3735SOL    HW111797   5.661   3.439   2.758 -1.2232  0.0251 -2.7498
 3735SOL    HW211798   5.800   3.493   2.734 -0.2127 -0.4799  1.2539
 3736SOL     OW11799   6.432   3.089   0.465  0.2340 -0.4608 -0.0765
 3736SOL    HW111800   6.368   3.051   0.404  0.7913 -0.3463 -0.7402
 3736SOL    HW211801   6.501   3.124   0.409 -1.2983  3.6733  0.2955
 3737SOL     OW11802   5.579   2.467   1.996 -0.6142  0.4436 -0.2937
 3737SOL    HW111803   5.517   2.523   1.950 -1.0415 -0.3081 -0.6655
 3737SOL    HW211804   5.531   2.439   2.075  0.3907  2.3583  1.0788
 3738SOL     OW11805   7.076   3.894   1.336  0.4675 -0.0796  0.2272
 3738SOL    HW111806   7.085   3.870   1.243  0.8159 -0.0973  0.2642
 3738SOL    HW211807   7.149   3.850   1.379  0.6198  0.3593  0.4276
 3739SOL     OW11808   0.291   2.615   1.682  0.2077  0.4547 -0.1766
 3739SOL    HW111809   0.326   2.696   1.645  0.6386 -0.0979 -1.0077
 3739SOL    HW211810   0.197   2.630   1.687  0.3401  1.2538  0.3279
 3740SOL     OW11811   4.968   3.435   3.240 -0.5126 -0.1825 -0.2151
 3740SOL    HW111812   5.048   3.389   3.216 -1.0879 -1.6601  0.5579
 3740SOL    HW211813   4.940   3.478   3.160  1.5826  1.2621 -0.2579
 3741SOL     OW11814   5.984   3.381   0.932 -0.2890 -0.5655 -0.2113
 3741SOL    HW111815   6.008   3.455   0.987 -0.3154 -2.1326  2.0618
 3741SOL    HW211816   5.889   3.375   0.941 -0.1383 -1.7434  0.8887
 3742SOL     OW11817   6.734   1.056   0.333 -0.2413  0.1623  0.4160
 3742SOL    HW111818   6.715   1.092   0.420 -0.8386 -1.0145  0.7829
 3742SOL    HW211819   6.808   0.996   0.348 -0.5252 -0.2520  0.1601
 3743SOL     OW11820   0.830   5.307   2.819  0.1599  0.2125 -0.4607
 3743SOL    HW111821   0.853   5.325   2.910  0.0611  0.0796 -0.4093
 3743SOL    HW211822   0.738   5.282   2.821 -0.7359  3.0753 -0.9516
 3744SOL     OW11823   7.132   1.775   2.835  0.0614 -0.3715  0.0673
 3744SOL    HW111824   7.083   1.770   2.753  1.9439 -1.1902 -1.0917
 3744SOL    HW211825   7.112   1.861   2.870 -0.1852  0.3184 -1.6653
 3745SOL     OW11826   5.805   1.435   3.105  0.9725  0.2793  0.2802
 3745SOL    HW111827   5.843   1.485   3.177 -1.7546  0.5941  1.6221
 3745SOL    HW211828   5.823   1.344   3.128  0.1513  0.3748  1.3826
 3746SOL     OW11829   5.958   2.225   2.858  0.1221  0.2079 -0.1846
 3746SOL    HW111830   6.002   2.158   2.910  1.2861  1.7780  0.9491
 3746SOL    HW211831   5.865   2.215   2.881  0.4727  0.0689  1.2814
 3747SOL     OW11832   0.042   4.653   0.101 -0.0681 -0.0277 -0.3175
 3747SOL    HW111833  -0.027   4.674   0.165  1.8951  0.3677  1.7952
 3747SOL    HW211834   0.030   4.717   0.032 -2.7823 -0.9786 -0.8501
 3748SOL     OW11835   6.691   1.746   0.842  0.1175 -0.2081  0.0073
 3748SOL    HW111836   6.686   1.758   0.747 -0.6313 -0.6552 -0.0146
 3748SOL    HW211837   6.781   1.768   0.864  0.3447 -0.2714 -0.8323
 3749SOL     OW11838   0.430   4.160   0.790  0.2647 -0.3681  0.3753
 3749SOL    HW111839   0.426   4.067   0.767  0.6399 -0.0148 -1.2547
 3749SOL    HW211840   0.474   4.201   0.716 -2.0372  1.4702 -0.1136
 3750SOL     OW11841   6.602   4.859   0.475 -0.0429  0.0189 -0.7904
 3750SOL    HW111842   6.648   4.885   0.395  0.4055 -1.7881 -1.1673
 3750SOL    HW211843   6.667   4.871   0.545 -0.1168  0.6798 -0.8309
 3751SOL     OW11844   6.443   3.939   0.976  0.5291  0.6888  0.2925
 3751SOL    HW111845   6.537   3.953   0.971  0.6120  0.0777  0.0707
 3751SOL    HW211846   6.433   3.845   0.988 -0.0753  0.6791 -0.2331
 3752SOL     OW11847   5.156   4.209   2.462 -0.0266 -0.0211 -0.1925
 3752SOL    HW111848   5.086   4.274   2.458  0.3732  0.4678  0.7133
 3752SOL    HW211849   5.201   4.218   2.378  0.0745  0.9303 -0.0474
 3753SOL     OW11850   0.166   5.211   2.799 -0.1653 -0.3168 -0.0500
 3753SOL    HW111851   0.150   5.286   2.742  0.7894 -0.2024 -0.1925
 3753SOL    HW211852   0.196   5.142   2.740 -0.6508 -0.6896  0.1317
 3754SOL     OW11853   1.534   1.409   1.178 -0.3704  0.6809 -0.2106
 3754SOL    HW111854   1.524   1.503   1.164  1.4476  0.6885 -1.8913
 3754SOL    HW211855   1.486   1.391   1.259 -1.2855  2.9268 -0.2035
 3755SOL     OW11856   7.191   3.080   1.525 -0.2874  0.2083  0.0654
 3755SOL    HW111857   7.132   3.123   1.587 -0.0965 -0.3783  0.6627
 3755SOL    HW211858   7.279   3.104   1.556 -0.1394 -1.3295  0.9789
 3756SOL     OW11859   5.871   2.739   3.241  0.0069  0.0732 -0.0008
 3756SOL    HW111860   5.854   2.824   3.198 -0.7617  0.2146  0.5627
 3756SOL    HW211861   5.887   2.761   3.332 -0.2187 -0.3963  0.1537
 3757SOL     OW11862   4.081   5.161   0.125  0.3407 -0.1269 -0.3172
 3757SOL    HW111863   4.065   5.200   0.039 -0.8737 -1.4458 -0.7300
 3757SOL    HW211864   4.159   5.106   0.113  0.2785 -0.1665 -0.5363
 3758SOL     OW11865   0.261   3.726   0.518  0.5769  0.0196  0.0351
 3758SOL    HW111866   0.341   3.744   0.567  1.2385 -1.9318 -0.2420
 3758SOL    HW211867   0.235   3.639   0.547 -1.6034  0.6944  0.2824
 3759SOL     OW11868   6.458   2.745   2.231  0.4802 -0.2981  0.6218
 3759SOL    HW111869   6.371   2.719   2.202  0.5642  0.6082 -0.5246
 3759SOL    HW211870   6.509   2.664   2.231  0.0156 -0.5962 -0.1401
 3760SOL     OW11871   0.477   2.860   3.042 -0.1088 -0.0829  0.0192
 3760SOL    HW111872   0.528   2.779   3.036 -0.8530 -0.5489 -0.1222
 3760SOL    HW211873   0.430   2.854   3.125 -0.6155 -0.0720 -0.2608
 3761SOL     OW11874   7.081   2.540   3.228 -0.8540 -0.2975  0.1909
 3761SOL    HW111875   7.033   2.623   3.232 -0.6520 -0.2087  0.8296
 3761SOL    HW211876   7.152   2.550   3.291 -0.3042 -0.6318 -0.3620
 3762SOL     OW11877   6.028   3.318   1.266 -0.3838  0.4428 -0.4311
 3762SOL    HW111878   5.985   3.318   1.351  0.6060  0.4215  0.0781
 3762SOL    HW211879   5.987   3.389   1.218  0.2688  1.6096  0.6965
 3763SOL     OW11880   4.714   3.360   1.552 -1.2484 -0.0455  0.3229
 3763SOL    HW111881   4.644   3.298   1.531 -2.8773  2.1825 -1.3364
 3763SOL    HW211882   4.676   3.446   1.536  1.8847  1.3031 -0.7740
 3764SOL     OW11883   4.255   2.596   2.468  0.5910  0.7989 -0.0614
 3764SOL    HW111884   4.257   2.683   2.426  0.6051  0.0782 -1.6396
 3764SOL    HW211885   4.347   2.570   2.472  0.6082  0.9571  0.6538
 3765SOL     OW11886   6.055   4.611   1.735 -0.8521  0.1376  0.0800
 3765SOL    HW111887   6.074   4.526   1.775 -2.1489  0.8566  2.4011
 3765SOL    HW211888   6.141   4.644   1.709  0.5527  0.5057  4.3573
 3766SOL     OW11889   0.045   3.003   1.393  0.7352 -0.6600 -0.1204
 3766SOL    HW111890   0.097   3.044   1.461  1.8455 -0.0499 -1.3012
 3766SOL    HW211891   0.004   2.927   1.436  2.0092 -0.7266  1.0223
 3767SOL     OW11892   5.873   1.322   0.269  0.0117  0.4433 -0.3987
 3767SOL    HW111893   5.835   1.268   0.338 -0.9170  1.5406 -0.0133
 3767SOL    HW211894   5.798   1.349   0.216  0.5844  0.5126 -1.1897
 3768SOL     OW11895   0.256   4.044   1.089 -0.2636  0.3088 -0.0856
 3768SOL    HW111896   0.330   4.103   1.074 -0.3800  0.2474 -0.9900
 3768SOL    HW211897   0.219   4.071   1.172  0.3226  0.8282  0.0095
 3769SOL     OW11898   4.481   2.223   2.596 -0.7474 -0.3011 -0.2049
 3769SOL    HW111899   4.535   2.262   2.528 -0.5943  0.2747  0.2323
 3769SOL    HW211900   4.395   2.213   2.556 -0.5901 -0.2270 -0.5668
 3770SOL     OW11901   5.170   0.932   0.086  0.0224 -0.5726 -0.5513
 3770SOL    HW111902   5.129   1.018   0.085 -0.1237 -0.6246 -2.1707
 3770SOL    HW211903   5.212   0.926   0.172  1.2708  1.6992 -0.9318
 3771SOL     OW11904   4.777   1.391   1.848 -0.3618  0.1955  0.4467
 3771SOL    HW111905   4.713   1.406   1.918  0.5769 -0.8045  1.5622
 3771SOL    HW211906   4.860   1.422   1.885  0.4606 -1.8846  0.4642
 3772SOL     OW11907   7.144   1.263   0.085 -0.0684  0.2610  0.3328
 3772SOL    HW111908   7.143   1.299  -0.004  0.2456 -1.4952 -0.4268
 3772SOL    HW211909   7.212   1.196   0.083 -0.5027 -0.2615  1.7242
 3773SOL     OW11910   4.960   3.615   0.317  0.5219  0.2699  0.5575
 3773SOL    HW111911   4.877   3.572   0.295  0.8472  0.1008 -0.3794
 3773SOL    HW211912   5.008   3.550   0.368  0.0758  0.3853  1.1470
 3774SOL     OW11913   5.593   3.267   0.979  0.0360 -0.3164 -0.6033
 3774SOL    HW111914   5.515   3.229   0.937 -0.6012 -0.6768  0.8252
 3774SOL    HW211915   5.667   3.221   0.940 -0.5723 -1.0450 -0.9277
 3775SOL     OW11916   7.337   2.638   1.932  0.2582 -0.0740  0.2785
 3775SOL    HW111917   7.361   2.719   1.888  0.4054  0.3161  1.0583
 3775SOL    HW211918   7.420   2.590   1.941  0.6302  0.8182  2.0528
 3776SOL     OW11919   6.631   2.716   3.281 -0.2249  0.7560 -0.5751
 3776SOL    HW111920   6.696   2.751   3.342  1.6167  1.0288 -2.5719
 3776SOL    HW211921   6.644   2.622   3.283 -3.1999  0.2064  2.6083
 3777SOL     OW11922   5.673   2.292   2.406  0.0857  0.1185 -0.1384
 3777SOL    HW111923   5.693   2.206   2.369  0.4524  0.4831 -0.8083
 3777SOL    HW211924   5.757   2.324   2.440  0.2683  0.8198 -1.1956
 3778SOL     OW11925   7.227   2.139   1.730  0.6189  0.3348  1.1377
 3778SOL    HW111926   7.308   2.099   1.699  1.0487  1.8176  0.2618
 3778SOL    HW211927   7.217   2.219   1.677 -2.9909 -1.2491 -0.9258
 3779SOL     OW11928   7.351   0.896   1.376  0.5934  0.6089  0.1308
 3779SOL    HW111929   7.386   0.832   1.437  1.9305  1.1765 -0.0143
 3779SOL    HW211930   7.409   0.972   1.383 -0.1796  1.3134 -0.6581
 3780SOL     OW11931   0.078   3.452   3.412  0.5127 -0.6583  0.0232
 3780SOL    HW111932   0.173   3.446   3.412  0.5328 -0.4210  0.6468
 3780SOL    HW211933   0.051   3.408   3.332  1.1851 -0.0230 -0.5613
 3781SOL     OW11934   5.759   3.535   0.696 -0.5228 -0.1433  0.0598
 3781SOL    HW111935   5.741   3.598   0.765 -1.6886  1.2741 -1.4466
 3781SOL    HW211936   5.699   3.462   0.712 -1.2432  0.4683  0.1761
 3782SOL     OW11937   0.482   3.716   3.433  0.5881 -0.7609 -0.5194
 3782SOL    HW111938   0.508   3.742   3.344 -1.5800 -0.5642 -1.1741
 3782SOL    HW211939   0.535   3.771   3.491 -0.0348  1.2720 -1.7758
 3783SOL     OW11940   5.480   2.102   0.374 -0.4050  0.0267  0.3962
 3783SOL    HW111941   5.449   2.134   0.289 -2.0168 -0.8889  0.5919
 3783SOL    HW211942   5.410   2.044   0.404  0.9407 -1.0605  1.5476
 3784SOL     OW11943   7.285   0.521   3.276  0.2563  0.0850  0.4312
 3784SOL    HW111944   7.299   0.477   3.360 -0.8276  0.2783  0.7283
 3784SOL    HW211945   7.202   0.485   3.243 -0.7070  1.9062  0.7172
 3785SOL     OW11946   0.147   3.871   1.439 -0.0245  0.0264 -0.2753
 3785SOL    HW111947   0.225   3.875   1.383 -0.2538 -0.0707 -0.6081
 3785SOL    HW211948   0.177   3.828   1.519  0.1883 -0.3315 -0.5395
 3786SOL     OW11949   5.401   3.054   0.077 -0.2922  0.3576 -0.0259
 3786SOL    HW111950   5.393   3.011  -0.008 -1.9002  1.4890 -0.4975
 3786SOL    HW211951   5.346   3.002   0.136  0.1948  0.0293  0.1459
 3787SOL     OW11952   5.744   4.569   2.321 -0.1460 -0.2082  0.0648
 3787SOL    HW111953   5.729   4.629   2.248  0.4835  0.0031  0.1039
 3787SOL    HW211954   5.693   4.606   2.393 -0.7931 -0.4348 -0.2662
 3788SOL     OW11955   6.418   2.060   2.323  0.5093  0.1487  0.0406
 3788SOL    HW111956   6.480   2.040   2.393  0.2028 -0.3895  0.1654
 3788SOL    HW211957   6.338   2.014   2.348 -0.6618  2.5257  1.0012
 3789SOL     OW11958   0.072   3.077   2.005 -0.4502 -0.2475 -0.2246
 3789SOL    HW111959   0.168   3.081   2.013 -0.3550 -1.4917 -0.6108
 3789SOL    HW211960   0.053   2.985   1.993 -1.5066  0.1869 -2.4768
 3790SOL     OW11961   7.081   2.015   0.988 -0.3517 -0.4321  0.1925
 3790SOL    HW111962   7.036   2.050   0.911 -1.7752 -0.9174  0.7716
 3790SOL    HW211963   7.139   1.947   0.953 -0.5185 -0.2135 -0.5189
 3791SOL     OW11964   6.698   2.551   2.273 -0.0183  0.0209 -0.5107
 3791SOL    HW111965   6.763   2.549   2.343 -0.5339 -0.7465 -0.0434
 3791SOL    HW211966   6.651   2.469   2.282  0.1478 -0.2601 -1.9988
 3792SOL     OW11967   5.493   1.857   0.805 -0.5341 -0.1991 -0.5076
 3792SOL    HW111968   5.471   1.944   0.839  0.4130 -0.4343  0.7964
 3792SOL    HW211969   5.563   1.874   0.741  0.6223 -0.0841  0.7388
 3793SOL     OW11970   7.199   1.511   1.275 -0.1564  0.4872 -0.4290
 3793SOL    HW111971   7.292   1.537   1.275  0.9902 -3.0858 -0.5978
 3793SOL    HW211972   7.171   1.524   1.184  0.1647  1.4900 -0.4029
 3794SOL     OW11973   7.435   2.718   1.570 -0.0234  0.2135  0.3616
 3794SOL    HW111974   7.366   2.655   1.550  0.4150 -1.0478  2.4906
 3794SOL    HW211975   7.509   2.691   1.515 -0.5487  0.3089 -0.4087
 3795SOL     OW11976   4.378   0.989   0.343 -0.1270 -0.1201  0.1380
 3795SOL    HW111977   4.345   1.074   0.371 -0.1619  0.0619 -0.4441
 3795SOL    HW211978   4.301   0.932   0.344 -0.1701 -0.0612  0.1977
 3796SOL     OW11979   5.450   2.680   2.585  0.2301  0.4005 -0.2879
 3796SOL    HW111980   5.469   2.689   2.491 -0.0219 -1.6026 -0.5849
 3796SOL    HW211981   5.527   2.714   2.629  0.3205  1.4577 -1.2129
 3797SOL     OW11982   6.496   2.759   0.201  0.4852 -0.3505 -0.0170
 3797SOL    HW111983   6.412   2.713   0.200  0.5701 -0.5324  0.8089
 3797SOL    HW211984   6.472   2.852   0.193  0.2622 -0.4558 -0.6629
 3798SOL     OW11985   0.308   4.224   1.352  0.6911  0.9180  0.1291
 3798SOL    HW111986   0.377   4.289   1.341  2.3573 -0.7416  0.2620
 3798SOL    HW211987   0.343   4.161   1.415 -0.1101 -1.0434 -1.2645
 3799SOL     OW11988   6.891   2.373   3.308 -0.1048  0.2487 -0.3078
 3799SOL    HW111989   6.909   2.281   3.287  0.0642  0.1987  0.0619
 3799SOL    HW211990   6.964   2.421   3.269 -0.2231  0.2331 -0.5512
 3800SOL     OW11991   7.005   3.164   2.221  0.2981  0.0011 -0.3325
 3800SOL    HW111992   6.994   3.236   2.283  1.7159 -1.1524  1.3476
 3800SOL    HW211993   6.941   3.098   2.249 -0.9679  0.5040 -1.8399
 3801SOL     OW11994   5.956   2.767   1.212  0.1458  0.1553  0.1010
 3801SOL    HW111995   5.984   2.715   1.137  1.9682  0.2435  0.6694
 3801SOL    HW211996   5.978   2.857   1.187 -0.8242  0.4069  0.0839
 3802SOL     OW11997   4.271   4.999   1.718  0.1321 -0.7687 -0.2094
 3802SOL    HW111998   4.299   5.090   1.731 -0.9305 -0.2517 -1.3090
 3802SOL    HW211999   4.341   4.946   1.757 -0.2461  0.5177  2.4588
 3803SOL     OW12000   6.382   3.896   0.556 -0.0889  0.4353 -0.4851
 3803SOL    HW112001   6.375   3.965   0.622  2.1206 -1.3308  1.8504
 3803SOL    HW212002   6.299   3.848   0.563  0.2510  0.0340  1.4356
 3804SOL     OW12003   5.301   1.722   2.020 -0.5555  0.2569 -0.9167
 3804SOL    HW112004   5.369   1.774   2.063 -0.5189  0.0665 -0.7442
 3804SOL    HW212005   5.219   1.749   2.062 -0.7683  1.4533 -2.0196
 3805SOL     OW12006   5.967   0.185   2.128  0.0608  0.3120 -0.1311
 3805SOL    HW112007   6.058   0.162   2.111 -0.4010 -1.1623 -0.7767
 3805SOL    HW212008   5.956   0.271   2.088  1.7421  1.6016  1.9630
 3806SOL     OW12009   5.371   3.845   2.343 -0.0677  0.6399  0.3447
 3806SOL    HW112010   5.462   3.824   2.324 -0.1087  0.6786  0.1053
 3806SOL    HW212011   5.376   3.911   2.413  0.1187  1.2803 -0.2566
 3807SOL     OW12012   6.061   2.398   0.544 -0.0251 -0.2861  0.4550
 3807SOL    HW112013   5.993   2.337   0.575  0.7232 -1.3912 -0.0169
 3807SOL    HW212014   6.080   2.369   0.455  1.2183 -0.1369  0.6544
 3808SOL     OW12015   6.379   2.929   0.709 -0.0081 -0.3613 -0.6212
 3808SOL    HW112016   6.380   2.856   0.648 -3.9652 -0.9828 -0.2553
 3808SOL    HW212017   6.411   3.004   0.658  0.8253 -1.6683 -2.0916
 3809SOL     OW12018   6.229   2.460   0.761 -0.7101 -0.2301 -0.3741
 3809SOL    HW112019   6.199   2.374   0.788  0.2039 -0.3729  0.2345
 3809SOL    HW212020   6.186   2.475   0.677 -0.7648 -1.3424 -0.5621
 3810SOL     OW12021   5.499   1.843   2.176  0.5009 -0.3658  0.6933
 3810SOL    HW112022   5.556   1.882   2.110 -0.2977  0.1924  0.3265
 3810SOL    HW212023   5.475   1.916   2.233 -1.2562 -0.2201 -0.1736
 3811SOL     OW12024   5.764   3.143   0.361  1.0660  0.9200  0.1542
 3811SOL    HW112025   5.817   3.195   0.300 -1.1760  1.4319 -1.4849
 3811SOL    HW212026   5.690   3.199   0.382  0.1185 -0.5020  0.7439
 3812SOL     OW12027   6.045   2.454   2.725 -0.0318 -0.5749 -0.6170
 3812SOL    HW112028   5.985   2.526   2.746  1.3669  0.5217 -0.2577
 3812SOL    HW212029   6.038   2.394   2.800  0.6694  0.4693  0.3152
 3813SOL     OW12030   1.348   2.947   1.674  0.1538  0.2104 -0.0747
 3813SOL    HW112031   1.439   2.963   1.651  0.0746 -0.4426 -0.8598
 3813SOL    HW212032   1.318   3.030   1.712  0.8448  0.6743 -0.5297
 3814SOL     OW12033   7.120   5.375   0.080  0.3103  0.3610  0.3335
 3814SOL    HW112034   7.158   5.402  -0.004  1.9249  1.8759  1.4820
 3814SOL    HW212035   7.027   5.362   0.061  0.9930 -1.6114 -2.1762
 3815SOL     OW12036   6.889   3.997   0.894 -0.2990  0.0355  0.0600
 3815SOL    HW112037   6.821   3.960   0.949  1.9303  0.0902  3.0751
 3815SOL    HW212038   6.939   3.922   0.862 -0.7046  0.0907 -0.7472
 3816SOL     OW12039   7.161   4.758   1.578 -0.1756  0.1399  0.2769
 3816SOL    HW112040   7.079   4.802   1.553 -0.0963 -0.3310 -0.8711
 3816SOL    HW212041   7.156   4.673   1.534 -0.1475 -0.8683  2.1441
 3817SOL     OW12042   5.693   3.172   1.282  0.8431  0.8287  0.3533
 3817SOL    HW112043   5.646   3.237   1.334 -2.0260 -0.9090  0.2044
 3817SOL    HW212044   5.677   3.197   1.191  1.2863  0.9207  0.2997
 3818SOL     OW12045   0.975   1.316   2.834 -0.0556  0.1158 -0.2762
 3818SOL    HW112046   0.917   1.339   2.761  0.7377  2.1948 -0.3133
 3818SOL    HW212047   1.059   1.297   2.793  0.0468 -0.0709  0.0126
 3819SOL     OW12048   6.510   2.082   2.761 -0.2985 -0.0710 -0.0598
 3819SOL    HW112049   6.448   2.083   2.833 -0.7891  0.3690 -0.4772
 3819SOL    HW212050   6.509   2.172   2.728 -0.2122 -0.3101 -0.7270
 3820SOL     OW12051   0.484   1.615   2.461  0.7012  0.7847 -0.1693
 3820SOL    HW112052   0.446   1.689   2.413 -1.0238  0.3682  0.4937
 3820SOL    HW212053   0.505   1.551   2.394 -1.7666  0.1721 -0.4306
 3821SOL     OW12054   6.558   3.098   1.048  0.1273 -0.0404 -0.5444
 3821SOL    HW112055   6.472   3.066   1.018 -0.1865  0.2766  0.0111
 3821SOL    HW212056   6.612   3.019   1.051 -0.3217 -0.3434 -0.2833
 3822SOL     OW12057   4.173   2.764   0.250 -0.4644  0.0821 -0.0712
 3822SOL    HW112058   4.099   2.777   0.191  0.2048  2.0211 -0.5451
 3822SOL    HW212059   4.226   2.843   0.240  0.8304 -0.5399  1.4734
 3823SOL     OW12060   0.080   2.120   1.310  0.1305  0.1691  0.0231
 3823SOL    HW112061   0.004   2.136   1.366  0.4659  0.7916  0.3197
 3823SOL    HW212062   0.083   2.025   1.300  0.0169  0.0472  1.0166
 3824SOL     OW12063   5.515   0.988   0.491  0.5010 -0.2017 -0.0391
 3824SOL    HW112064   5.538   0.897   0.471  1.0339 -0.0858  0.0306
 3824SOL    HW212065   5.430   0.982   0.534  1.5390 -0.8856  2.0302
 3825SOL     OW12066   6.540   0.894   2.436 -0.4032  0.6980  0.1303
 3825SOL    HW112067   6.542   0.804   2.469 -0.5154  1.3135  1.9262
 3825SOL    HW212068   6.486   0.942   2.499 -0.8027  1.9237 -1.0959
 3826SOL     OW12069   4.078   2.922   0.896 -0.1271 -0.4272 -0.4517
 3826SOL    HW112070   4.126   3.004   0.883 -0.9696 -0.3177 -3.3811
 3826SOL    HW212071   4.129   2.856   0.850 -0.3431 -1.2725  0.4691
 3827SOL     OW12072   6.666   2.702   1.684  0.4698 -0.0357  0.2574
 3827SOL    HW112073   6.596   2.659   1.732  0.4121  0.6366  0.7935
 3827SOL    HW212074   6.624   2.775   1.639  0.3553 -1.1347 -1.5488
 3828SOL     OW12075   0.646   3.979   3.447 -0.2612 -0.1267 -0.1853
 3828SOL    HW112076   0.709   4.027   3.394 -0.8586  0.8131 -0.0661
 3828SOL    HW212077   0.563   3.988   3.400 -0.8971  1.0999  1.0944
 3829SOL     OW12078   6.159   2.808   0.153  0.2898 -0.2018 -0.3165
 3829SOL    HW112079   6.174   2.722   0.192  1.5453  0.0187 -0.2678
 3829SOL    HW212080   6.117   2.858   0.223 -2.5501 -1.3922 -1.0606
 3830SOL     OW12081   6.715   1.420   2.637 -0.2117  0.1985  0.1723
 3830SOL    HW112082   6.712   1.336   2.682  1.1857 -0.0130 -0.0832
 3830SOL    HW212083   6.725   1.397   2.544  3.9613  0.5246  0.3655
 3831SOL     OW12084   5.877   2.189   3.135 -0.5012  0.1869 -0.0874
 3831SOL    HW112085   5.787   2.160   3.148 -0.1315 -1.2379 -0.4388
 3831SOL    HW212086   5.928   2.136   3.198  0.1136  0.8094 -0.0488
 3832SOL     OW12087   2.032   4.049   0.814 -0.8934  0.0242  0.5920
 3832SOL    HW112088   1.947   4.051   0.857 -0.8480 -0.2283  0.6966
 3832SOL    HW212089   2.012   4.037   0.721 -0.9340 -1.9383  0.8063
 3833SOL     OW12090   5.730   0.689   0.111 -1.1741  0.6883 -0.3880
 3833SOL    HW112091   5.674   0.625   0.069 -0.1516 -1.4008  1.2466
 3833SOL    HW212092   5.818   0.671   0.077 -0.9499  1.6556 -0.3688
 3834SOL     OW12093   7.099   3.046   1.065 -0.0894  0.3648 -0.1298
 3834SOL    HW112094   7.071   2.999   0.987 -1.0081 -0.7966  0.8703
 3834SOL    HW212095   7.108   2.979   1.132  1.6756  1.1932  0.5305
 3835SOL     OW12096   6.011   3.260   0.316 -0.2501  0.4303  0.0464
 3835SOL    HW112097   5.986   3.338   0.266 -1.2981  0.1130  0.0558
 3835SOL    HW212098   6.082   3.221   0.265 -0.4144  0.8283 -0.4970
 3836SOL     OW12099   6.627   2.408   1.599 -0.1051 -0.1480 -0.1807
 3836SOL    HW112100   6.575   2.453   1.533 -2.5683 -2.4122  0.0285
 3836SOL    HW212101   6.565   2.348   1.641  2.4598 -2.3305  0.7961
 3837SOL     OW12102   5.991   3.406   2.759  0.2409 -0.8911 -0.0169
 3837SOL    HW112103   6.036   3.347   2.819 -2.3112 -2.2522  0.6838
 3837SOL    HW212104   5.949   3.348   2.695  0.1705  0.3613 -1.1562
 3838SOL     OW12105   6.702   3.925   1.085  0.3859 -0.0046 -0.4672
 3838SOL    HW112106   6.690   3.855   1.149  0.1843  0.5222  0.0784
 3838SOL    HW212107   6.767   3.983   1.125 -0.0093  0.5205 -0.5767
 3839SOL     OW12108   4.884   2.370   3.250  0.7269 -0.4742  0.1509
 3839SOL    HW112109   4.878   2.464   3.233  0.6808 -0.7258 -1.2907
 3839SOL    HW212110   4.950   2.363   3.320  0.1357  0.6678  0.8528
 3840SOL     OW12111   6.286   2.767   3.369  0.6334  0.6000  0.3150
 3840SOL    HW112112   6.265   2.791   3.459  0.6797  0.6580  0.3102
 3840SOL    HW212113   6.335   2.685   3.377 -1.7330 -0.9223  0.1916
 3841SOL     OW12114   0.512   4.391   1.355  0.3996 -0.6206 -0.1695
 3841SOL    HW112115   0.587   4.406   1.296 -0.8106  1.3552 -1.3121
 3841SOL    HW212116   0.535   4.440   1.434  0.1386  0.3736 -0.6947
 3842SOL     OW12117   4.221   4.524   1.770 -0.2164 -0.2302  0.0560
 3842SOL    HW112118   4.196   4.608   1.809  0.5559 -0.0975  0.2763
 3842SOL    HW212119   4.147   4.466   1.789 -1.6396  0.8793 -1.7413
 3843SOL     OW12120   6.368   4.901   1.223  0.1491 -0.1336 -0.3045
 3843SOL    HW112121   6.293   4.901   1.283  0.1275 -1.0643 -0.3063
 3843SOL    HW212122   6.432   4.843   1.266  0.0871 -0.9042 -1.2236
 3844SOL     OW12123   6.408   1.385   2.714 -0.4288  0.5356  0.2382
 3844SOL    HW112124   6.444   1.464   2.754  0.4162  1.0301 -1.3922
 3844SOL    HW212125   6.410   1.319   2.783 -0.4066  1.7272  1.3978
 3845SOL     OW12126   6.677   3.262   2.316  0.2768 -0.3649 -0.0889
 3845SOL    HW112127   6.679   3.331   2.382  0.0572 -1.3974  1.0331
 3845SOL    HW212128   6.735   3.194   2.351 -1.3317 -1.7599  0.0084
 3846SOL     OW12129   5.945   2.805   0.672 -0.3520 -0.2754 -0.3434
 3846SOL    HW112130   5.984   2.745   0.734 -1.2151  0.0614  0.5544
 3846SOL    HW212131   6.002   2.881   0.672  0.5083 -0.8944 -1.1652
 3847SOL     OW12132   7.230   1.511   1.000  0.6023  0.3103  0.0962
 3847SOL    HW112133   7.248   1.560   0.920  0.6402  1.1735  0.6197
 3847SOL    HW212134   7.261   1.422   0.981 -2.2948 -0.4170 -2.0121
 3848SOL     OW12135   0.880   3.662   0.678 -0.2687 -0.0324 -0.1398
 3848SOL    HW112136   0.941   3.640   0.747  0.1684  0.2706 -0.4213
 3848SOL    HW212137   0.809   3.710   0.722  0.7402  1.4896 -0.0996
 3849SOL     OW12138   5.589   3.523   0.181 -0.4314 -0.0544 -0.9229
 3849SOL    HW112139   5.549   3.606   0.153 -0.1434  1.3090  2.2529
 3849SOL    HW212140   5.539   3.455   0.137 -1.7927  1.7731 -2.3103
 3850SOL     OW12141   3.549   2.895   2.257 -0.2220  0.1110 -0.8253
 3850SOL    HW112142   3.498   2.911   2.177 -1.2572 -0.4036 -0.2842
 3850SOL    HW212143   3.487   2.910   2.328  0.8301  1.0849 -0.0848
 3851SOL     OW12144   0.541   3.387   2.228  0.0589 -0.2794 -0.5372
 3851SOL    HW112145   0.530   3.482   2.218 -0.5896 -0.3573 -0.6020
 3851SOL    HW212146   0.459   3.358   2.269 -0.1494 -0.9474 -1.4132
 3852SOL     OW12147   0.010   3.171   0.786  0.7007 -0.3841 -0.5467
 3852SOL    HW112148  -0.057   3.240   0.777  0.5762 -0.6525 -1.9292
 3852SOL    HW212149   0.026   3.165   0.880 -0.7243  0.1688 -0.2415
 3853SOL     OW12150   5.393   1.797   0.082  0.0225  0.0263  0.2460
 3853SOL    HW112151   5.479   1.810   0.042 -0.2457 -0.3270 -0.4561
 3853SOL    HW212152   5.336   1.859   0.038  0.2202  1.3702  1.7913
 3854SOL     OW12153   0.139   4.004   0.312  0.3112  0.2524 -0.7625
 3854SOL    HW112154   0.179   4.083   0.274 -0.3063  0.5976 -0.7034
 3854SOL    HW212155   0.175   3.999   0.401  1.0324 -0.0308 -1.0628
 3855SOL     OW12156   6.720   3.423   2.506  0.0115  0.1784  0.0932
 3855SOL    HW112157   6.763   3.416   2.592 -0.3514 -0.6092  0.2272
 3855SOL    HW212158   6.691   3.513   2.501  0.6778  0.4272  0.4877
 3856SOL     OW12159   6.814   0.232   1.076  0.6966 -0.3513 -0.1791
 3856SOL    HW112160   6.730   0.206   1.039  0.0083  0.5841  0.6554
 3856SOL    HW212161   6.875   0.164   1.048 -0.4242 -1.2783 -0.4427
 3857SOL     OW12162   0.744   4.158   1.511  0.5717  0.3539 -0.1107
 3857SOL    HW112163   0.755   4.073   1.553  1.1093  0.1650 -0.6034
 3857SOL    HW212164   0.650   4.172   1.508  0.5088  0.0937  0.5925
 3858SOL     OW12165   0.618   4.340   0.290  0.0029  0.1106 -0.0439
 3858SOL    HW112166   0.639   4.392   0.212  1.1383  1.3334  1.0459
 3858SOL    HW212167   0.602   4.252   0.255  0.1944  0.6883 -1.6982
 3859SOL     OW12168   5.863   2.233   0.632 -0.1906  0.5448  0.0059
 3859SOL    HW112169   5.810   2.191   0.565  0.3487 -0.4391  0.1784
 3859SOL    HW212170   5.836   2.193   0.714 -0.1087  0.9885  0.2542
 3860SOL     OW12171   4.071   3.047   3.317 -0.0668  0.4738  0.4833
 3860SOL    HW112172   4.067   3.113   3.248  0.5169  0.4966  0.4661
 3860SOL    HW212173   3.995   3.065   3.372  1.1682  2.5313  1.6860
 3861SOL     OW12174   7.229   2.305   0.708 -0.3420  0.1420 -0.7720
 3861SOL    HW112175   7.180   2.255   0.643  1.7130 -1.4041 -1.2378
 3861SOL    HW212176   7.162   2.343   0.765 -2.0746 -1.2838 -1.7625
 3862SOL     OW12177   5.273   3.876   3.074  0.3997 -0.4830 -0.2398
 3862SOL    HW112178   5.361   3.907   3.096  0.0452  0.1882  0.2745
 3862SOL    HW212179   5.220   3.956   3.071 -0.3904 -0.9745  0.4186
 3863SOL     OW12180   7.380   2.307   1.977  0.6539 -0.4184  0.0366
 3863SOL    HW112181   7.294   2.348   1.983  0.7243 -0.4828  3.8612
 3863SOL    HW212182   7.364   2.216   2.000  1.4957 -0.9886 -1.4960
 3864SOL     OW12183   3.518   4.073   2.968  0.0511 -0.4888 -0.0811
 3864SOL    HW112184   3.520   4.072   2.873  1.2027 -0.8556 -0.0648
 3864SOL    HW212185   3.609   4.063   2.995  0.0034  1.5224  1.0471
 3865SOL     OW12186   5.182   4.074   1.705  0.2524 -0.4684 -0.3788
 3865SOL    HW112187   5.088   4.088   1.719  0.5776  0.1789  1.5814
 3865SOL    HW212188   5.210   4.023   1.781  0.9743 -3.5090 -2.5146
 3866SOL     OW12189   2.867   4.360   3.387  0.5980 -0.4043  0.4995
 3866SOL    HW112190   2.909   4.387   3.468  1.2611 -3.3542  1.2847
 3866SOL    HW212191   2.795   4.303   3.415 -2.1720  2.1482 -0.9237
 3867SOL     OW12192   4.724   2.943   2.471 -0.0328 -0.5610 -0.1860
 3867SOL    HW112193   4.678   3.025   2.458 -1.4097 -0.7961  2.4087
 3867SOL    HW212194   4.700   2.889   2.396  0.2026  1.0848 -1.4850
 3868SOL     OW12195   5.821   2.715   0.443  0.1391 -0.0226  0.2984
 3868SOL    HW112196   5.859   2.727   0.530  1.8943  0.2605 -0.4609
 3868SOL    HW212197   5.806   2.621   0.437 -1.0153  0.0720  1.2803
 3869SOL     OW12198   7.097   2.187   2.265  0.2542  0.0360  0.1341
 3869SOL    HW112199   7.014   2.206   2.308  0.9948  0.1236  1.6158
 3869SOL    HW212200   7.093   2.234   2.182 -1.1082  0.1388  0.2363
 3870SOL     OW12201   5.328   2.871   2.774  0.2957 -0.5526 -0.4547
 3870SOL    HW112202   5.375   2.804   2.824  2.5835  0.0149 -1.7088
 3870SOL    HW212203   5.315   2.832   2.688  1.4563  0.4859 -1.1275
 3871SOL     OW12204   0.574   3.653   0.564 -0.2203 -0.2961 -0.1754
 3871SOL    HW112205   0.555   3.570   0.520  0.8297 -1.1170  0.8585
 3871SOL    HW212206   0.564   3.634   0.657  1.0757  0.4384  0.1423
 3872SOL     OW12207   6.019   4.285   0.230 -0.1941 -0.5776  0.3993
 3872SOL    HW112208   6.037   4.379   0.233 -1.6750 -0.1557 -1.5948
 3872SOL    HW212209   5.932   4.276   0.269 -0.0614 -1.1338  0.5864
 3873SOL     OW12210   6.637   2.658   2.943 -0.1231  0.1972 -0.1350
 3873SOL    HW112211   6.642   2.697   3.031 -0.1576  0.5206 -0.2762
 3873SOL    HW212212   6.708   2.594   2.942  2.1259  2.5281 -1.0223
 3874SOL     OW12213   0.779   3.774   0.041 -0.3622 -0.4902 -0.1074
 3874SOL    HW112214   0.818   3.770  -0.046 -0.7282  0.1162 -0.3028
 3874SOL    HW212215   0.725   3.853   0.040  1.2993  0.7674  1.3376
 3875SOL     OW12216   5.967   2.376   0.944  0.1135  0.1856 -0.2874
 3875SOL    HW112217   6.005   2.294   0.911  1.5829  0.6796  0.1083
 3875SOL    HW212218   5.873   2.363   0.936  0.3428 -1.1239 -1.2457
 3876SOL     OW12219   0.413   2.753   2.769 -0.5866  0.1221  0.2034
 3876SOL    HW112220   0.407   2.844   2.798  0.4589  0.6485 -1.1614
 3876SOL    HW212221   0.507   2.736   2.763 -0.7303 -0.0269 -2.5774
 3877SOL     OW12222   0.031   1.889   0.123  0.2789 -0.3314 -0.5150
 3877SOL    HW112223   0.080   1.861   0.046 -1.4075  1.4035 -2.3813
 3877SOL    HW212224  -0.051   1.840   0.118  0.4784 -0.8025  0.6698
 3878SOL     OW12225   5.175   1.025   2.769  0.3043  0.6560  0.2255
 3878SOL    HW112226   5.211   1.108   2.800  0.0448  1.4860 -1.5477
 3878SOL    HW212227   5.084   1.044   2.749  0.0830 -0.2173  0.3485
 3879SOL     OW12228   7.251   1.852   1.897  0.7071 -0.0454 -0.3716
 3879SOL    HW112229   7.176   1.907   1.874  0.7754 -0.1381 -0.8299
 3879SOL    HW212230   7.327   1.906   1.874  0.7980  0.4382  1.0077
 3880SOL     OW12231   7.144   2.172   1.993 -0.1902  0.6913  0.4245
 3880SOL    HW112232   7.165   2.171   1.900  3.6026  2.3260  1.0854
 3880SOL    HW212233   7.103   2.087   2.009  2.3173 -1.2035 -2.1385
 3881SOL     OW12234   0.386   1.022   1.335 -1.6175 -0.0002 -0.1548
 3881SOL    HW112235   0.451   1.092   1.331 -3.3265  1.6098 -0.9055
 3881SOL    HW212236   0.384   0.986   1.246 -1.5765 -0.2347 -0.0625
 3882SOL     OW12237   4.570   2.902   3.412  0.1583  0.3813 -0.3749
 3882SOL    HW112238   4.608   2.814   3.404 -0.6326  0.0843 -1.1547
 3882SOL    HW212239   4.476   2.886   3.420  0.0282  1.1525 -0.2846
 3883SOL     OW12240   6.496   3.227   1.391  0.3186  0.0328 -0.0580
 3883SOL    HW112241   6.440   3.233   1.313  1.9175  1.3275 -1.1792
 3883SOL    HW212242   6.463   3.295   1.449 -0.2381 -0.2578 -0.0237
 3884SOL     OW12243   6.804   3.869   2.686  0.0174  0.4549  0.3196
 3884SOL    HW112244   6.793   3.913   2.770  1.0997  0.3382  0.5436
 3884SOL    HW212245   6.788   3.937   2.621  1.5370  1.1928  0.6621
 3885SOL     OW12246   6.721   2.551   1.293 -0.3138  0.2174  0.3189
 3885SOL    HW112247   6.762   2.561   1.379 -0.2171 -2.6009  0.6949
 3885SOL    HW212248   6.784   2.587   1.231 -0.4123  2.3547  1.3827
 3886SOL     OW12249   6.601   2.296   1.264 -0.0142 -0.2266  0.0790
 3886SOL    HW112250   6.599   2.382   1.306 -0.9647 -1.0378  1.8263
 3886SOL    HW212251   6.693   2.270   1.266  0.3112  0.8109 -0.6486
 3887SOL     OW12252   5.625   4.460   1.253  0.2235  0.2985  0.1729
 3887SOL    HW112253   5.660   4.467   1.342 -0.5828 -0.5342  0.5775
 3887SOL    HW212254   5.531   4.445   1.266  0.3203 -1.3868 -0.7482
 3888SOL     OW12255   4.436   3.576   0.388  0.5925  0.2542 -0.3473
 3888SOL    HW112256   4.357   3.522   0.378  0.3176  0.3912  0.9120
 3888SOL    HW212257   4.497   3.521   0.435  0.8303  0.5546 -0.3017
 3889SOL     OW12258   0.898   2.098   1.878 -0.0217 -0.5243  0.0464
 3889SOL    HW112259   0.869   2.137   1.796  0.9293 -1.2404 -0.6464
 3889SOL    HW212260   0.948   2.167   1.921 -0.4559 -0.1721 -0.0049
 3890SOL     OW12261   0.391   3.260   0.740 -0.3542  0.5217 -0.2985
 3890SOL    HW112262   0.415   3.233   0.652 -1.7342 -0.4513 -0.4082
 3890SOL    HW212263   0.305   3.300   0.730  0.1477  1.8302  0.3984
 3891SOL     OW12264   7.315   3.523   2.089  0.0883  0.0260  0.0315
 3891SOL    HW112265   7.346   3.438   2.122  0.1374  0.6682  1.7108
 3891SOL    HW212266   7.233   3.502   2.044 -0.2372 -0.8403  0.9780
 3892SOL     OW12267   4.690   3.482   2.795 -0.2253 -0.2489 -0.0403
 3892SOL    HW112268   4.781   3.454   2.797 -0.2009 -0.1578  0.1464
 3892SOL    HW212269   4.693   3.575   2.818 -0.0936  0.4629 -2.6921
 3893SOL     OW12270   6.738   2.047   2.887 -0.0133 -0.2274  0.2418
 3893SOL    HW112271   6.735   2.052   2.982 -1.0880  1.5080  0.1630
 3893SOL    HW212272   6.647   2.063   2.859  0.4013 -0.0349 -1.0860
 3894SOL     OW12273   6.217   0.872   0.494 -0.4264  0.0446 -0.3776
 3894SOL    HW112274   6.227   0.968   0.498 -1.2725  0.1155  0.5274
 3894SOL    HW212275   6.145   0.858   0.433  0.5905 -0.1056 -1.5802
 3895SOL     OW12276   5.155   2.874   2.526 -0.0911 -0.1086  0.3374
 3895SOL    HW112277   5.118   2.819   2.457  0.7016 -1.7637  1.1659
 3895SOL    HW212278   5.080   2.917   2.565 -0.9189 -1.6226  0.4927
 3896SOL     OW12279   6.368   1.482   1.484 -0.2045  0.2037 -0.4969
 3896SOL    HW112280   6.289   1.529   1.459  0.0536  0.4436 -0.8712
 3896SOL    HW212281   6.437   1.519   1.428  0.3224  0.5418  0.3639
 3897SOL     OW12282   1.850   4.299   2.535 -0.0222  0.0324  0.5418
 3897SOL    HW112283   1.762   4.315   2.569 -0.4108 -0.0698 -0.3874
 3897SOL    HW212284   1.839   4.294   2.440  0.6272 -2.1958  0.5212
 3898SOL     OW12285   0.133   3.288   2.496 -0.1501 -0.4168 -0.5281
 3898SOL    HW112286   0.160   3.268   2.586  0.7270  0.2074 -0.6410
 3898SOL    HW212287   0.072   3.218   2.474 -0.7848 -0.2918  0.7289
 3899SOL     OW12288   7.229   2.217   1.126  0.0626  0.3107  0.3573
 3899SOL    HW112289   7.164   2.159   1.087  0.1620  0.7271 -0.4515
 3899SOL    HW212290   7.229   2.194   1.219  0.2835 -1.1684  0.0269
 3900SOL     OW12291   5.430   2.210   0.126 -0.4601 -0.2333  0.1603
 3900SOL    HW112292   5.526   2.213   0.119 -0.3698  0.4437  1.2750
 3900SOL    HW212293   5.402   2.147   0.060  0.7005  0.1187 -0.6966
 3901SOL     OW12294   5.617   1.597   3.373  0.0467 -0.0875 -0.2908
 3901SOL    HW112295   5.552   1.526   3.379 -0.2454  0.2040  0.0964
 3901SOL    HW212296   5.656   1.600   3.461 -0.1330  0.4070 -0.2272
 3902SOL     OW12297   6.099   3.010   0.629  0.0844 -0.4884 -0.3665
 3902SOL    HW112298   6.071   3.101   0.626  1.3129 -0.0986 -0.7111
 3902SOL    HW212299   6.192   3.014   0.651  0.2703 -1.6289 -0.8424
 3903SOL     OW12300   6.255   3.005   2.309 -0.5610  0.6962 -0.2514
 3903SOL    HW112301   6.332   3.042   2.266 -1.0810  0.4682 -1.3875
 3903SOL    HW212302   6.271   3.021   2.402 -0.3280  2.9186 -0.6255
 3904SOL     OW12303   7.021   1.820   1.633 -0.4595 -0.1982  0.0582
 3904SOL    HW112304   7.112   1.791   1.627 -0.6634 -1.3722  1.8301
 3904SOL    HW212305   6.991   1.823   1.542  0.9788 -1.0259 -0.4822
 3905SOL     OW12306   6.677   0.072   1.727  0.2426  0.0310  0.0894
 3905SOL    HW112307   6.645  -0.017   1.713  0.3179  0.0003  0.1146
 3905SOL    HW212308   6.661   0.116   1.643 -1.7676  0.6016  0.6986
 3906SOL     OW12309   6.036   3.555   0.657  0.0913 -0.0504  0.2033
 3906SOL    HW112310   6.074   3.577   0.742 -0.2282  0.0025  0.3330
 3906SOL    HW212311   5.942   3.555   0.672 -0.0809  1.9061 -0.6011
 3907SOL     OW12312   6.014   2.383   1.533 -0.2596 -0.0631  0.2118
 3907SOL    HW112313   5.992   2.380   1.626 -1.8230 -0.4546 -0.1406
 3907SOL    HW212314   5.985   2.470   1.505  0.0572 -0.0066  0.0613
 3908SOL     OW12315   6.035   3.996   2.205 -0.2043 -0.0041  0.7080
 3908SOL    HW112316   6.053   4.070   2.147 -0.9171 -0.5745 -0.2730
 3908SOL    HW212317   6.114   3.941   2.199 -0.4036 -0.2231  0.0091
 3909SOL     OW12318   5.932   1.022   1.516 -0.4255 -0.2853 -0.6043
 3909SOL    HW112319   5.958   1.111   1.542  0.3500 -0.9603  1.0830
 3909SOL    HW212320   6.009   0.986   1.473  0.1545 -0.9730  0.9587
 3910SOL     OW12321   4.251   4.831   2.406  0.2658  0.6753  0.4285
 3910SOL    HW112322   4.217   4.870   2.487  1.2036  1.5016  0.4436
 3910SOL    HW212323   4.311   4.897   2.371  0.1947  0.1557 -0.7302
 3911SOL     OW12324   6.454   2.528   2.528 -0.1861 -0.2043  0.2355
 3911SOL    HW112325   6.432   2.620   2.515 -1.2172 -0.4683  0.0053
 3911SOL    HW212326   6.385   2.480   2.482  1.6689 -1.1054 -1.8415
 3912SOL     OW12327   7.179   1.847   0.355  0.3533 -0.2509 -0.0161
 3912SOL    HW112328   7.109   1.791   0.389  0.1355  0.2384  0.3658
 3912SOL    HW212329   7.190   1.819   0.264 -0.4891 -0.1987 -0.1467
 3913SOL     OW12330   5.296   1.913   0.444 -0.2581 -0.4668  0.6672
 3913SOL    HW112331   5.208   1.928   0.410  0.5187  1.3208 -0.7633
 3913SOL    HW212332   5.315   1.821   0.422 -1.2978 -0.5018 -0.1669
 3914SOL     OW12333   7.248   1.125   2.725  0.5232 -0.2206 -0.2284
 3914SOL    HW112334   7.207   1.167   2.801  2.8107 -1.4316  1.8240
 3914SOL    HW212335   7.184   1.060   2.695 -0.0989 -0.3168  1.2366
 3915SOL     OW12336   5.091   3.864   1.918  0.0207  0.3253  0.0930
 3915SOL    HW112337   5.060   3.803   1.851  0.2403  0.7387 -0.3944
 3915SOL    HW212338   5.011   3.904   1.953 -0.1528 -0.5517  0.7305
 3916SOL     OW12339   5.813   3.675   1.671 -0.1798 -0.3532 -0.2426
 3916SOL    HW112340   5.767   3.756   1.693 -1.3284 -1.1390  0.3221
 3916SOL    HW212341   5.865   3.697   1.594 -1.0131  0.7307 -0.5157
 3917SOL     OW12342   0.522   3.065   2.536  0.1655 -0.0243  0.5035
 3917SOL    HW112343   0.476   3.046   2.618  0.9615 -1.1462  0.7153
 3917SOL    HW212344   0.614   3.041   2.554  0.5327  0.6567 -0.4029
 3918SOL     OW12345   4.941   4.378   2.424  0.2206 -0.6106 -0.5483
 3918SOL    HW112346   4.964   4.451   2.481 -1.2378 -0.6283  0.1100
 3918SOL    HW212347   4.890   4.418   2.353 -1.4505 -1.0775  0.3499
 3919SOL     OW12348   7.018   2.408   0.863 -0.6461  0.3142  0.0076
 3919SOL    HW112349   6.972   2.379   0.942 -0.5433 -0.2949 -0.1501
 3919SOL    HW212350   6.971   2.365   0.791  0.8222 -1.2153 -0.0915
 3920SOL     OW12351   7.342   1.274   2.032 -0.2596  0.0168  0.2154
 3920SOL    HW112352   7.405   1.214   1.990 -0.0578 -0.0965  0.6820
 3920SOL    HW212353   7.358   1.264   2.125 -1.2173 -0.2831  0.3587
 3921SOL     OW12354   4.104   1.673   2.517  0.3364 -0.2998  0.0389
 3921SOL    HW112355   4.168   1.743   2.523  0.0917 -0.0048 -0.7136
 3921SOL    HW212356   4.156   1.593   2.507  0.6783  0.2317 -4.1320
 3922SOL     OW12357   6.433   4.527   3.356  0.1098 -0.6061 -0.7614
 3922SOL    HW112358   6.407   4.583   3.429 -1.7509 -2.1726 -0.1129
 3922SOL    HW212359   6.382   4.559   3.281  0.4592 -0.2932 -0.8699
 3923SOL     OW12360   6.467   3.829   1.325 -0.1217 -0.7251  0.3043
 3923SOL    HW112361   6.534   3.761   1.315  0.7294  0.1161  0.0964
 3923SOL    HW212362   6.516   3.907   1.350 -1.0073 -0.0413 -0.0402
 3924SOL     OW12363   0.123   5.204   1.337 -0.2387  0.4876  0.1019
 3924SOL    HW112364   0.036   5.208   1.375 -0.8355  0.7375 -1.2540
 3924SOL    HW212365   0.127   5.119   1.293 -0.5379  1.2531 -1.4890
 3925SOL     OW12366   7.043   1.121   2.236 -0.0111  0.4686 -0.5465
 3925SOL    HW112367   7.064   1.135   2.144  1.6802  0.5813 -0.1744
 3925SOL    HW212368   7.082   1.037   2.258  0.9982  1.1582  0.4375
 3926SOL     OW12369   5.708   4.325   0.443 -0.3977 -0.1244 -0.1674
 3926SOL    HW112370   5.686   4.325   0.350  0.8580 -2.1679 -0.5344
 3926SOL    HW212371   5.624   4.333   0.488 -1.6403 -3.6855 -1.4977
 3927SOL     OW12372   6.394   2.073   1.245  0.3107  0.5572 -0.0863
 3927SOL    HW112373   6.346   2.052   1.325  0.3238  1.2702  0.1083
 3927SOL    HW212374   6.406   2.168   1.247  1.9174  0.3924 -0.0070
 3928SOL     OW12375   7.374   2.873   0.726 -0.7890 -0.2790  0.4593
 3928SOL    HW112376   7.456   2.886   0.774 -0.1821 -0.7065 -0.4355
 3928SOL    HW212377   7.339   2.791   0.761  0.9006 -1.9233 -1.4810
 3929SOL     OW12378   0.270   1.190   1.724  0.2833  0.0343 -0.0334
 3929SOL    HW112379   0.177   1.165   1.726  0.5889 -1.7967 -2.7218
 3929SOL    HW212380   0.311   1.137   1.792 -0.2814 -1.2177 -0.6338
 3930SOL     OW12381   7.323   3.917   0.849 -0.3626 -0.2723 -0.6850
 3930SOL    HW112382   7.294   3.922   0.758 -1.1118 -0.4199 -0.4629
 3930SOL    HW212383   7.384   3.843   0.851  1.6551  1.2765 -1.5776
 3931SOL     OW12384   0.816   2.776   0.040  0.5287 -0.7132  0.2466
 3931SOL    HW112385   0.879   2.787   0.111  1.0851 -1.3570 -0.1248
 3931SOL    HW212386   0.871   2.765  -0.038 -0.0670 -0.2883 -0.2370
 3932SOL     OW12387   5.465   1.730   2.421  0.6923  0.2240 -0.3051
 3932SOL    HW112388   5.469   1.746   2.327  0.3360  0.0676 -0.3499
 3932SOL    HW212389   5.419   1.646   2.429 -0.1671  0.7172  0.0407
 3933SOL     OW12390   0.203   4.545   2.774  0.5635  0.2623  0.4574
 3933SOL    HW112391   0.291   4.525   2.803  0.7280  0.0929 -0.1529
 3933SOL    HW212392   0.146   4.508   2.841  0.9738  1.3253  1.4230
 3934SOL     OW12393   6.555   3.303   3.429  0.4700  0.5257 -0.4214
 3934SOL    HW112394   6.642   3.326   3.464  0.0939 -1.4154  2.1455
 3934SOL    HW212395   6.496   3.368   3.468  0.6408  1.3154 -1.4574
 3935SOL     OW12396   6.158   3.681   0.865 -0.2729 -0.5356  0.4077
 3935SOL    HW112397   6.187   3.636   0.944  1.3640  2.4209  1.6539
 3935SOL    HW212398   6.115   3.761   0.896 -2.6498 -0.8662 -1.6742
 3936SOL     OW12399   0.117   3.691   1.678 -0.4665  0.3584  0.3430
 3936SOL    HW112400   0.039   3.696   1.733 -0.1361 -0.1972  0.8618
 3936SOL    HW212401   0.136   3.598   1.670 -0.5336  0.4192 -0.7533
 3937SOL     OW12402   6.510   0.607   2.351  0.1834 -0.2081  0.4287
 3937SOL    HW112403   6.570   0.579   2.282 -0.1241  0.3152 -0.0572
 3937SOL    HW212404   6.457   0.529   2.368  0.4064 -0.4084  0.2321
 3938SOL     OW12405   6.041   3.887   0.657 -0.4390  0.2042  0.5330
 3938SOL    HW112406   6.024   3.798   0.688  0.6722 -0.0835  0.3665
 3938SOL    HW212407   6.024   3.882   0.563  3.5412 -0.9786 -0.2953
 3939SOL     OW12408   6.331   3.804   3.436 -0.3245  0.2292 -0.1196
 3939SOL    HW112409   6.351   3.870   3.370  0.5973 -0.4211 -0.5148
 3939SOL    HW212410   6.237   3.788   3.427 -0.2735  0.4172 -1.0139
 3940SOL     OW12411   6.283   2.916   1.973  0.4027  0.2420 -0.4501
 3940SOL    HW112412   6.257   2.960   2.054 -1.4310 -2.1588  0.3902
 3940SOL    HW212413   6.241   2.830   1.978  2.1319 -0.8670 -2.9071
 3941SOL     OW12414   5.018   2.110   1.567  0.2438  0.1639 -0.4670
 3941SOL    HW112415   5.043   2.095   1.476 -1.3698 -1.1036 -0.7473
 3941SOL    HW212416   4.983   2.199   1.568 -0.5196 -0.1118 -1.2904
 3942SOL     OW12417   3.882   4.725   0.614  0.1908  0.0518  0.4636
 3942SOL    HW112418   3.807   4.785   0.612 -1.6078 -2.0736 -1.5810
 3942SOL    HW212419   3.843   4.638   0.615  2.6926 -1.1419  1.3692
 3943SOL     OW12420   6.817   2.048   1.580  0.6339  0.1295  0.4665
 3943SOL    HW112421   6.904   2.009   1.569  0.4259 -0.7868  1.8349
 3943SOL    HW212422   6.833   2.142   1.584  1.4081  0.0560 -0.5739
 3944SOL     OW12423   3.700   3.690   1.600 -0.5999  0.0344 -0.7081
 3944SOL    HW112424   3.763   3.758   1.623  0.2905 -1.2790  0.9582
 3944SOL    HW212425   3.680   3.705   1.508  2.0209  0.5972 -1.2391
 3945SOL     OW12426   5.824   3.815   2.163 -0.2418 -0.5771 -0.3882
 3945SOL    HW112427   5.885   3.888   2.171 -0.5288 -0.4717  1.1844
 3945SOL    HW212428   5.766   3.839   2.091 -0.0546  0.5229 -0.1866
 3946SOL     OW12429   5.036   1.725   0.889  0.0022 -0.2683  0.2507
 3946SOL    HW112430   4.955   1.677   0.905 -0.0673 -0.6747 -1.2195
 3946SOL    HW212431   5.016   1.783   0.816  0.6109  0.7284  0.8522
 3947SOL     OW12432   4.789   5.298   3.025 -0.5926 -0.3374  0.1036
 3947SOL    HW112433   4.870   5.251   3.005  0.2751  1.1124  0.0971
 3947SOL    HW212434   4.727   5.269   2.958 -0.3024 -1.9595  0.4999
 3948SOL     OW12435   6.670   3.387   2.068  0.2547  0.3537  0.6085
 3948SOL    HW112436   6.683   3.317   2.132 -0.0511 -0.1291  0.1483
 3948SOL    HW212437   6.753   3.394   2.022  0.3096  0.3435  0.7057
 3949SOL     OW12438   0.608   3.836   0.348  0.0702  0.1573  0.2170
 3949SOL    HW112439   0.544   3.786   0.297 -0.9950 -0.0179  1.6469
 3949SOL    HW212440   0.625   3.781   0.425 -0.4640  1.5743  1.4013
 3950SOL     OW12441   5.687   2.028   2.046  0.0952 -0.0579  0.0289
 3950SOL    HW112442   5.725   2.098   1.993 -0.1168  0.1158  0.1068
 3950SOL    HW212443   5.760   1.996   2.100 -0.0461  0.8208  0.7670
 3951SOL     OW12444   4.998   2.827   0.545 -0.4758 -0.4875  0.4899
 3951SOL    HW112445   5.084   2.842   0.506  0.3411 -0.9343  2.0039
 3951SOL    HW212446   4.936   2.869   0.485  0.9213  1.0825  0.0592
 3952SOL     OW12447   0.170   2.653   1.370  0.3229  0.1036  0.5075
 3952SOL    HW112448   0.164   2.563   1.337 -0.1164  0.8563 -1.6234
 3952SOL    HW212449   0.141   2.707   1.297  2.0240  2.0935  1.2190
 3953SOL     OW12450   5.433   3.339   2.086 -0.2295  0.3091 -0.3392
 3953SOL    HW112451   5.387   3.280   2.147  0.1393  0.7629  0.3862
 3953SOL    HW212452   5.400   3.313   2.000 -0.2751 -0.7829 -0.0153
 3954SOL     OW12453   0.914   2.475   1.662 -0.0133 -0.1227 -0.6458
 3954SOL    HW112454   0.919   2.570   1.649  1.8343 -0.2540 -1.3205
 3954SOL    HW212455   0.930   2.462   1.755 -0.0996  0.2296 -0.5827
 3955SOL     OW12456   4.905   3.729   1.773 -0.3218 -0.6205  0.4190
 3955SOL    HW112457   4.935   3.639   1.764 -0.2238 -0.4665 -0.8949
 3955SOL    HW212458   4.867   3.752   1.688 -2.8172 -0.2821  1.5341
 3956SOL     OW12459   6.255   2.280   1.413 -0.2500 -0.1550  0.1066
 3956SOL    HW112460   6.294   2.364   1.390 -0.5203 -0.8502 -3.4408
 3956SOL    HW212461   6.169   2.303   1.449 -0.7293  1.1468 -1.7127
 3957SOL     OW12462   6.505   4.105   2.971 -0.2197 -0.0968 -0.1513
 3957SOL    HW112463   6.507   4.014   2.941  0.5146  0.1436 -0.8804
 3957SOL    HW212464   6.550   4.104   3.056 -0.5553 -0.4705  0.0229
 3958SOL     OW12465   5.872   3.445   0.159 -0.6651  0.3065  0.1711
 3958SOL    HW112466   5.788   3.466   0.200  0.5778  2.1520  2.0462
 3958SOL    HW212467   5.884   3.514   0.093 -0.3802  0.4126  0.3305
 3959SOL     OW12468   6.371   3.807   2.545  0.6039 -0.0429 -0.6389
 3959SOL    HW112469   6.364   3.894   2.507 -0.1645  0.1068 -0.1694
 3959SOL    HW212470   6.363   3.820   2.639 -0.5917 -0.7089 -0.6210
 3960SOL     OW12471   6.447   3.096   2.560  0.2595  0.7100  0.8733
 3960SOL    HW112472   6.513   3.033   2.531 -0.6747  0.2212 -0.2666
 3960SOL    HW212473   6.468   3.177   2.514 -0.5965  0.2251 -0.4508
 3961SOL     OW12474   5.845   3.909   3.078  0.2201 -0.1725 -0.0883
 3961SOL    HW112475   5.939   3.923   3.076  0.5315 -1.9525  0.2969
 3961SOL    HW212476   5.820   3.921   3.170  0.1969 -0.3577 -0.0690
 3962SOL     OW12477   0.337   2.899   3.270  0.1125 -0.0402  0.3397
 3962SOL    HW112478   0.332   2.988   3.304 -2.3110 -0.4227  1.2114
 3962SOL    HW212479   0.310   2.843   3.343  0.7246 -1.4244 -0.4457
 3963SOL     OW12480   6.979   4.089   0.220 -0.3247 -0.0045  0.4172
 3963SOL    HW112481   6.902   4.043   0.186  0.0733  0.4200 -1.1467
 3963SOL    HW212482   7.044   4.021   0.234  0.1691 -0.0195 -1.6258
 3964SOL     OW12483   0.855   3.537   0.188 -0.0574 -0.0847 -0.1026
 3964SOL    HW112484   0.854   3.611   0.127 -0.9080  0.2698  0.3310
 3964SOL    HW212485   0.879   3.575   0.272  3.4608 -0.9043 -0.5625
 3965SOL     OW12486   6.172   1.125   3.132 -0.0205  0.2015  0.0534
 3965SOL    HW112487   6.080   1.130   3.105 -0.8472 -1.7461  2.1774
 3965SOL    HW212488   6.190   1.211   3.171 -0.6666  0.8849 -1.1000
 3966SOL     OW12489   6.863   5.215   0.096  0.7769  0.1498 -0.2006
 3966SOL    HW112490   6.894   5.182   0.012 -1.4471 -1.1792 -0.5704
 3966SOL    HW212491   6.851   5.137   0.150  0.0467  0.7856  0.5876
 3967SOL     OW12492   7.267   2.345   1.527 -0.3496  0.0148  0.8258
 3967SOL    HW112493   7.238   2.431   1.498  2.4798  0.6055 -0.5555
 3967SOL    HW212494   7.350   2.361   1.572 -0.7734 -1.8103  2.3947
 3968SOL     OW12495   6.196   0.947   2.088 -0.6590 -0.3252  0.2439
 3968SOL    HW112496   6.277   0.996   2.096 -1.2747  1.8546 -3.8589
 3968SOL    HW212497   6.222   0.855   2.092  1.8850  0.3172 -0.2384
 3969SOL     OW12498   5.575   2.853   2.381 -0.0334 -0.2941  0.2417
 3969SOL    HW112499   5.526   2.819   2.306  1.2027 -0.4892 -0.5060
 3969SOL    HW212500   5.656   2.887   2.343  0.0161  0.8888  1.3322
 3970SOL     OW12501   5.916   2.821   3.516 -0.3383  0.6742 -0.0159
 3970SOL    HW112502   6.004   2.810   3.552  0.0923  1.5832 -0.7393
 3970SOL    HW212503   5.862   2.842   3.592 -0.7556 -3.5387  1.0807
 3971SOL     OW12504   6.669   3.639   3.047  0.0868  0.1024 -0.5335
 3971SOL    HW112505   6.760   3.614   3.030  0.3135  0.5684 -0.0316
 3971SOL    HW212506   6.619   3.597   2.977  0.6209 -0.6278 -0.4907
 3972SOL     OW12507   6.924   4.146   0.494 -0.1328  0.3013  0.3215
 3972SOL    HW112508   6.830   4.161   0.495 -0.5624 -2.0449  0.1175
 3972SOL    HW212509   6.944   4.121   0.404  0.1004 -2.1847  0.9862
 3973SOL     OW12510   5.141   2.813   1.902  0.2272  0.1721 -0.4788
 3973SOL    HW112511   5.114   2.881   1.840  1.5830  0.0963 -1.1890
 3973SOL    HW212512   5.223   2.846   1.940 -1.3847  1.0281  2.6297
 3974SOL     OW12513   7.054   2.856   2.506 -0.4620  0.0224  0.4495
 3974SOL    HW112514   7.046   2.780   2.564 -1.6535 -1.3297 -1.3639
 3974SOL    HW212515   7.145   2.853   2.476 -0.4870 -0.6861  0.4216
 3975SOL     OW12516   6.892   2.641   1.111 -0.0814  0.5352 -0.0010
 3975SOL    HW112517   6.851   2.678   1.033 -2.3756 -0.1783  0.7841
 3975SOL    HW212518   6.983   2.670   1.106 -0.9643  3.5598 -1.0776
 3976SOL     OW12519   0.218   2.605   2.917  0.2258  0.8161  0.8469
 3976SOL    HW112520   0.280   2.673   2.946  1.0382  1.4327 -2.0421
 3976SOL    HW212521   0.197   2.629   2.827 -1.2015 -1.5931  0.4718
 3977SOL     OW12522   6.421   2.965   1.585  0.2477  0.3875 -0.6123
 3977SOL    HW112523   6.465   3.035   1.537 -1.5490  3.0572  1.3377
 3977SOL    HW212524   6.333   2.960   1.547 -0.1076  0.2288  0.1948
 3978SOL     OW12525   5.576   4.694   0.024 -0.7347  0.0142  0.2123
 3978SOL    HW112526   5.635   4.694   0.100 -0.7436  0.4522  0.2185
 3978SOL    HW212527   5.593   4.777  -0.020 -0.6029 -0.3212 -0.3704
 3979SOL     OW12528   0.409   2.910   2.252  0.4507 -0.5035  0.6957
 3979SOL    HW112529   0.392   2.843   2.186  2.6467 -0.5986  0.1333
 3979SOL    HW212530   0.372   2.875   2.333 -0.7507 -1.1774 -0.1202
 3980SOL     OW12531   6.475   2.269   0.564 -0.8180 -0.2904 -0.7173
 3980SOL    HW112532   6.553   2.215   0.575 -0.8077 -0.1915 -0.2660
 3980SOL    HW212533   6.496   2.350   0.610 -1.5767 -0.6659  0.3407
 3981SOL     OW12534   4.378   2.889   2.010 -0.2552 -0.0430 -0.3676
 3981SOL    HW112535   4.456   2.943   1.998 -0.3404  0.7935  2.2996
 3981SOL    HW212536   4.409   2.799   1.998  1.6108  0.1301  2.3024
 3982SOL     OW12537   4.983   2.366   1.511 -0.2738 -0.4642  0.2295
 3982SOL    HW112538   4.937   2.441   1.549 -2.5934 -1.1950 -0.9218
 3982SOL    HW212539   5.076   2.390   1.514 -0.7720  1.5509  1.7398
 3983SOL     OW12540   6.831   3.853   1.462  0.2718 -0.0569  0.0009
 3983SOL    HW112541   6.788   3.794   1.400 -0.3525  1.0721 -0.6766
 3983SOL    HW212542   6.919   3.865   1.427  1.3682 -2.6985  1.6088
 3984SOL     OW12543   5.642   0.497   0.568 -0.5336  0.0090 -0.2008
 3984SOL    HW112544   5.647   0.573   0.510 -1.4481 -0.4472 -0.9064
 3984SOL    HW212545   5.608   0.427   0.513 -0.2570 -0.7656  0.5855
 3985SOL     OW12546   5.040   3.371   0.481  0.0014  0.5297  0.1365
 3985SOL    HW112547   5.131   3.351   0.461 -0.8376 -2.5741 -1.2905
 3985SOL    HW212548   5.034   3.364   0.576  1.0881 -0.2189  0.1690
 3986SOL     OW12549   5.928   3.293   2.520 -0.0057  0.2075 -0.1367
 3986SOL    HW112550   5.940   3.257   2.433 -0.3642  1.6110 -0.8086
 3986SOL    HW212551   5.940   3.388   2.509 -2.3496  0.7065  0.8493
 3987SOL     OW12552   7.165   2.099   3.338  0.1968  0.5062 -0.0512
 3987SOL    HW112553   7.227   2.129   3.404 -0.6512 -1.3653  1.6896
 3987SOL    HW212554   7.177   2.004   3.335 -0.6337  0.4171 -1.7383
 3988SOL     OW12555   5.697   3.321   3.402  0.1542 -0.9028 -0.0741
 3988SOL    HW112556   5.646   3.363   3.472 -0.9788 -1.0088 -0.8130
 3988SOL    HW212557   5.752   3.391   3.367  0.7864 -0.8659  0.9616
 3989SOL     OW12558   7.296   2.738   3.178  0.4419  0.0739  0.1396
 3989SOL    HW112559   7.303   2.766   3.087  0.5629 -0.4998 -0.0312
 3989SOL    HW212560   7.213   2.776   3.208 -0.7901 -1.6137 -0.9021
 3990SOL     OW12561   6.981   3.266   1.600 -0.4499 -0.0035  0.6410
 3990SOL    HW112562   6.951   3.251   1.689 -0.9560 -1.5241  0.2519
 3990SOL    HW212563   6.901   3.265   1.547 -0.0120 -0.8943 -0.0349
 3991SOL     OW12564   5.638   1.556   2.918  0.6738 -0.5236 -0.7548
 3991SOL    HW112565   5.714   1.528   2.968  0.0618 -0.2543  0.3509
 3991SOL    HW212566   5.660   1.535   2.827  0.9093 -3.0586 -0.1767
 3992SOL     OW12567   4.283   3.134   3.455 -0.5015  0.3081  0.7945
 3992SOL    HW112568   4.213   3.129   3.390 -0.1693 -0.8981  0.5165
 3992SOL    HW212569   4.363   3.140   3.404 -0.2330 -0.7368  1.0870
 3993SOL     OW12570   4.620   0.255   0.009  0.1190 -0.3802 -0.2316
 3993SOL    HW112571   4.627   0.285   0.100  3.8986 -0.4911 -0.3411
 3993SOL    HW212572   4.710   0.238  -0.018 -0.9742 -1.6257 -3.6277
 3994SOL     OW12573   6.304   3.074   2.785 -0.3255  0.1527  0.1970
 3994SOL    HW112574   6.383   3.037   2.827 -0.2183  1.3468  1.1138
 3994SOL    HW212575   6.335   3.109   2.702 -0.7159 -3.1267 -1.5036
 3995SOL     OW12576   6.565   3.471   0.231 -0.5967 -0.0200 -0.0615
 3995SOL    HW112577   6.523   3.492   0.147  0.7261  0.8107 -0.5519
 3995SOL    HW212578   6.580   3.557   0.272  0.4360 -0.3015  0.1738
 3996SOL     OW12579   7.296   4.023   1.705 -0.3882 -0.2804  0.4246
 3996SOL    HW112580   7.317   3.986   1.791 -1.0126 -1.9541 -0.1071
 3996SOL    HW212581   7.203   4.041   1.709 -0.1140  1.2469  0.6391
 3997SOL     OW12582   1.352   2.625   2.910 -0.1291  0.3242  0.2608
 3997SOL    HW112583   1.438   2.651   2.876 -1.2865  1.3696 -2.0771
 3997SOL    HW212584   1.305   2.707   2.922 -1.3898 -0.3124 -0.1919
 3998SOL     OW12585   6.324   2.344   2.729 -0.6489 -0.0973  0.0425
 3998SOL    HW112586   6.394   2.379   2.674 -0.0184  0.3323  1.0904
 3998SOL    HW212587   6.249   2.401   2.713 -0.8493 -0.6856 -1.2508
 3999SOL     OW12588   5.095   3.242   1.537 -0.2532  0.0413 -0.6272
 3999SOL    HW112589   5.101   3.155   1.575  0.8767  0.7384  0.8873
 3999SOL    HW212590   5.064   3.227   1.447  0.4713 -1.9513 -0.5899
 4000SOL     OW12591   6.759   3.619   3.474 -0.1580 -0.5893  0.2509
 4000SOL    HW112592   6.763   3.577   3.389  1.3458  0.8551 -0.4617
 4000SOL    HW212593   6.800   3.557   3.534  2.7903  0.0516 -0.9223
 4001SOL     OW12594   0.445   2.530   1.138  0.3834  0.3863  0.2864
 4001SOL    HW112595   0.514   2.497   1.195  0.6072  0.0449 -0.1720
 4001SOL    HW212596   0.435   2.622   1.163  2.1838  0.9264 -0.7557
 4002SOL     OW12597   4.986   2.289   2.256 -0.6250 -0.8002  0.3332
 4002SOL    HW112598   5.060   2.251   2.209 -1.0743 -1.1329 -0.1158
 4002SOL    HW212599   4.975   2.376   2.218  0.0609 -0.4193  0.9854
 4003SOL     OW12600   4.708   2.487   0.688  0.1996  0.3129  0.4071
 4003SOL    HW112601   4.688   2.394   0.678 -0.0125  0.0457  2.8916
 4003SOL    HW212602   4.649   2.531   0.627 -1.9694 -0.9841  1.4906
 4004SOL     OW12603   5.644   3.769   2.592 -0.3078 -0.1396  0.1417
 4004SOL    HW112604   5.635   3.852   2.638 -3.5836 -0.3831  0.1681
 4004SOL    HW212605   5.644   3.703   2.661  1.4773 -0.2519  0.0753
 4005SOL     OW12606   5.713   2.247   1.868  0.1270  0.1024  0.1122
 4005SOL    HW112607   5.651   2.311   1.904 -1.0985 -1.4525  0.8940
 4005SOL    HW212608   5.786   2.300   1.837 -1.3512  1.9982 -0.3952
 4006SOL     OW12609   4.774   5.206   0.289 -0.2894  0.1737  0.8707
 4006SOL    HW112610   4.772   5.187   0.382 -2.6436  1.7790  1.2327
 4006SOL    HW212611   4.838   5.277   0.280 -0.3683  0.3082  1.3478
 4007SOL     OW12612   5.651   2.265   2.702 -0.5895 -0.2698  0.2052
 4007SOL    HW112613   5.615   2.351   2.726  2.2710  1.6640 -1.7154
 4007SOL    HW212614   5.616   2.250   2.614  1.1251  0.4106 -0.6372
 4008SOL     OW12615   5.285   0.684  -0.001 -0.3342  0.4726  0.4506
 4008SOL    HW112616   5.318   0.636   0.075 -0.5245  0.2098  0.3695
 4008SOL    HW212617   5.222   0.746   0.035 -0.2757  0.4875  0.5289
 4009SOL     OW12618   0.574   3.659   1.691  0.3022 -0.2803 -0.1626
 4009SOL    HW112619   0.543   3.575   1.659  1.3804 -1.2639  1.2083
 4009SOL    HW212620   0.496   3.714   1.697 -0.4238 -1.2002 -1.0266
 4010SOL     OW12621   0.461   2.867   1.614  0.3436  0.1854  0.0154
 4010SOL    HW112622   0.549   2.838   1.635 -0.6259 -3.1211  0.0569
 4010SOL    HW212623   0.458   2.869   1.518  0.0594 -1.1922 -0.0127
 4011SOL     OW12624   6.535   4.208   2.550 -0.0625 -0.4450  0.1321
 4011SOL    HW112625   6.462   4.221   2.610  1.2873 -3.0023  2.5821
 4011SOL    HW212626   6.608   4.253   2.593 -0.1139  2.3941 -2.4486
 4012SOL     OW12627   0.817   0.660   0.923  0.1085  0.2633  0.1334
 4012SOL    HW112628   0.910   0.668   0.904  0.1624  3.2114  1.1327
 4012SOL    HW212629   0.812   0.638   1.015 -0.2055 -1.0068 -0.1736
 4013SOL     OW12630   7.381   3.778   2.191 -0.2891  0.5372 -0.2373
 4013SOL    HW112631   7.337   3.695   2.172  0.6615  0.1087 -0.6565
 4013SOL    HW212632   7.339   3.841   2.133 -0.7324  0.2584 -0.2219
 4014SOL     OW12633   0.436   4.053   3.286  0.4291 -0.3075 -0.8056
 4014SOL    HW112634   0.344   4.048   3.314  0.5373 -1.5589 -0.5872
 4014SOL    HW212635   0.436   4.113   3.212 -0.5372 -0.1442 -0.6847
 4015SOL     OW12636   5.720   1.213   1.870  0.0367  0.4035  0.7489
 4015SOL    HW112637   5.714   1.219   1.774 -0.2046  1.9561  0.8281
 4015SOL    HW212638   5.651   1.152   1.895 -0.5282  0.7227 -0.0008
 4016SOL     OW12639   4.460   2.474   2.040  0.0283 -0.1379  0.6259
 4016SOL    HW112640   4.504   2.463   2.124  0.3579  0.0249  0.4752
 4016SOL    HW212641   4.527   2.511   1.982 -0.4413  0.5723  0.5299
 4017SOL     OW12642   5.104   3.023   2.143 -0.2588 -0.6734 -0.1815
 4017SOL    HW112643   5.044   3.030   2.068  1.4847  0.6008 -1.5299
 4017SOL    HW212644   5.053   3.054   2.218 -1.4515 -0.1683 -1.1730
 4018SOL     OW12645   6.512   3.503   1.152  0.2610 -0.1672  0.1974
 4018SOL    HW112646   6.468   3.436   1.205  0.5855  0.3712  1.1707
 4018SOL    HW212647   6.507   3.470   1.063 -0.4746 -1.0071  0.5341
 4019SOL     OW12648   5.728   2.491   3.231 -0.5818  0.2459 -0.6407
 4019SOL    HW112649   5.762   2.580   3.225  2.2746 -0.6951 -0.2341
 4019SOL    HW212650   5.704   2.468   3.141 -1.1305  1.3076 -0.7822
 4020SOL     OW12651   5.943   3.621   3.016  0.4746  0.1633 -0.1273
 4020SOL    HW112652   5.892   3.550   3.054 -0.4672  0.1444 -1.3400
 4020SOL    HW212653   5.907   3.701   3.054  1.0827  0.0390  0.7282
 4021SOL     OW12654   6.112   3.744   2.812 -0.1936 -0.7168 -0.6770
 4021SOL    HW112655   6.057   3.688   2.866 -0.2780 -1.6025 -1.6580
 4021SOL    HW212656   6.058   3.768   2.738 -0.2943  1.0330 -0.0770
 4022SOL     OW12657   5.876   2.979   1.769 -0.1101  0.0730 -0.1372
 4022SOL    HW112658   5.956   2.930   1.750 -0.5736 -0.4805 -0.7478
 4022SOL    HW212659   5.859   3.029   1.689  0.2382  1.0615  0.4063
 4023SOL     OW12660   7.108   2.384   2.583  0.2358 -0.0622  0.2766
 4023SOL    HW112661   7.203   2.392   2.575  0.2533 -0.6754 -0.2139
 4023SOL    HW212662   7.095   2.319   2.652  0.1694 -0.0323  0.2931
 4024SOL     OW12663   3.016   2.660   2.242 -0.0729 -0.0375  0.3060
 4024SOL    HW112664   2.980   2.572   2.231 -1.2956  0.5350 -0.4893
 4024SOL    HW212665   3.080   2.669   2.171 -0.8960  0.1644 -0.4288
 4025SOL     OW12666   6.115   2.907   1.464 -0.1064  0.5517  0.0751
 4025SOL    HW112667   6.173   2.880   1.393 -0.3994 -2.7306  0.9207
 4025SOL    HW212668   6.029   2.914   1.424 -0.1897 -0.8470 -0.0611
 4026SOL     OW12669   3.958   2.893   2.884 -0.6269 -0.0051  0.1723
 4026SOL    HW112670   3.982   2.803   2.903  0.3521  0.0914 -0.5660
 4026SOL    HW212671   3.890   2.886   2.817 -1.3743 -0.2133  0.9276
 4027SOL     OW12672   5.489   3.376   1.471  0.0621 -0.0860 -0.2310
 4027SOL    HW112673   5.505   3.446   1.407 -1.5603  2.7167  2.1728
 4027SOL    HW212674   5.564   3.382   1.531 -0.3584 -0.0153  0.2929
 4028SOL     OW12675   5.947   2.725   2.660  0.3141 -0.5462 -0.3243
 4028SOL    HW112676   5.975   2.684   2.579  0.9123  1.0667 -0.9545
 4028SOL    HW212677   6.025   2.768   2.694 -0.3472  0.2741  0.1924
 4029SOL     OW12678   5.217   4.279   2.206  0.3185 -0.9623  0.0562
 4029SOL    HW112679   5.240   4.190   2.180 -1.7805 -1.6643  0.3508
 4029SOL    HW212680   5.171   4.315   2.130  0.4961 -0.4144  0.2068
 4030SOL     OW12681   5.727   2.583   0.098 -1.0838  0.2651 -0.4745
 4030SOL    HW112682   5.753   2.495   0.125 -1.6506 -0.2199 -1.4965
 4030SOL    HW212683   5.801   2.615   0.047 -0.8804  0.3888 -0.1075
 4031SOL     OW12684   0.774   3.614   3.295 -0.0561  0.0928 -0.0138
 4031SOL    HW112685   0.735   3.528   3.311 -0.3183  0.4092  1.1064
 4031SOL    HW212686   0.704   3.665   3.254 -0.0533 -0.0622 -0.2176
 4032SOL     OW12687   2.769   1.085   0.085 -0.3458  0.1400 -0.6729
 4032SOL    HW112688   2.828   1.091   0.160 -2.2441 -0.9594  1.0123
 4032SOL    HW212689   2.778   1.169   0.040  0.7578  0.8850  0.8572
 4033SOL     OW12690   5.193   4.414   0.414 -0.4416  0.8669  0.0262
 4033SOL    HW112691   5.169   4.462   0.493 -0.9118  0.6169  0.0394
 4033SOL    HW212692   5.110   4.382   0.379 -0.0308 -1.4110  0.9629
 4034SOL     OW12693   5.535   2.920   0.413 -0.5826  0.3204  0.8561
 4034SOL    HW112694   5.572   2.959   0.492 -0.1641 -0.8016  1.2297
 4034SOL    HW212695   5.569   2.830   0.412 -2.7378 -0.5614  0.8449
 4035SOL     OW12696   0.149   0.755   1.482 -0.0274  0.7489  0.2041
 4035SOL    HW112697   0.153   0.686   1.548 -1.7670 -0.4377 -0.8482
 4035SOL    HW212698   0.237   0.792   1.480  1.8701 -3.2804 -1.0685
 4036SOL     OW12699   7.129   3.552   2.864  0.1198 -0.2107 -0.5636
 4036SOL    HW112700   7.225   3.557   2.865  0.0570  1.2347  0.1022
 4036SOL    HW212701   7.101   3.640   2.839 -1.0299 -1.1262 -2.7758
 4037SOL     OW12702   6.385   4.262   2.787 -0.2701 -0.1989 -0.8418
 4037SOL    HW112703   6.429   4.199   2.844  2.2074  0.1049 -2.2428
 4037SOL    HW212704   6.326   4.310   2.845  1.4774 -0.4850  1.3177
 4038SOL     OW12705   6.846   3.312   0.588  0.4879 -0.1136  0.0512
 4038SOL    HW112706   6.759   3.352   0.591  0.5980  0.1262  0.0847
 4038SOL    HW212707   6.865   3.289   0.679 -0.7242 -2.7723 -0.2700
 4039SOL     OW12708   6.952   3.185   0.812  0.4081 -0.1054  0.0067
 4039SOL    HW112709   6.899   3.208   0.888 -0.1944 -0.7743 -0.1987
 4039SOL    HW212710   6.973   3.092   0.824  0.4806 -0.1647 -0.5361
 4040SOL     OW12711   1.770   0.608   1.982  0.4240 -0.0371 -0.0265
 4040SOL    HW112712   1.760   0.528   1.930  2.1882 -1.2608  1.3728
 4040SOL    HW212713   1.690   0.613   2.033 -0.3597 -0.0547 -1.2148
 4041SOL     OW12714   7.230   2.609   2.321 -0.3097  0.9049  0.8463
 4041SOL    HW112715   7.248   2.517   2.337  0.6643  1.3811  2.7391
 4041SOL    HW212716   7.136   2.612   2.302  0.0424 -0.7051 -1.4847
 4042SOL     OW12717   5.040   4.451   3.037  0.2182  0.0872 -0.3928
 4042SOL    HW112718   5.062   4.539   3.006  1.0445 -0.2632 -0.8365
 4042SOL    HW212719   5.086   4.443   3.121 -0.8549  0.5130  0.2550
 4043SOL     OW12720   1.238   3.600   2.536 -0.4282 -0.3681 -0.0049
 4043SOL    HW112721   1.302   3.669   2.556  1.0616 -0.8225 -2.7064
 4043SOL    HW212722   1.153   3.644   2.541  0.4471  1.6061 -1.1444
 4044SOL     OW12723   6.354   3.407   2.463  0.3313  0.2739 -0.0913
 4044SOL    HW112724   6.334   3.422   2.555  1.4495 -0.1507  0.2342
 4044SOL    HW212725   6.369   3.495   2.427  0.6806  0.3914  0.3282
 4045SOL     OW12726   6.489   4.362   2.004  0.0067  0.1136 -0.1700
 4045SOL    HW112727   6.474   4.433   2.066 -2.3082 -0.7110  0.3486
 4045SOL    HW212728   6.493   4.283   2.058  2.6195 -0.2130 -0.7219
 4046SOL     OW12729   5.354   3.099   2.172 -0.2294 -0.2820  0.2449
 4046SOL    HW112730   5.372   3.098   2.266  0.4676 -0.2674  0.1220
 4046SOL    HW212731   5.268   3.059   2.163  0.3024 -1.5885  0.7772
 4047SOL     OW12732   4.687   3.685   2.577 -0.2289 -0.3476 -0.2083
 4047SOL    HW112733   4.712   3.776   2.594  1.9354 -0.6480 -1.4065
 4047SOL    HW212734   4.593   3.683   2.593  0.0130  1.5296  2.1428
 4048SOL     OW12735   3.541   2.476   2.755  0.0064  0.1271 -0.6447
 4048SOL    HW112736   3.501   2.529   2.686 -0.9425 -0.9028 -0.9211
 4048SOL    HW212737   3.467   2.440   2.803  0.6412  1.5415  1.5201
 4049SOL     OW12738   4.410   3.674   2.651 -0.0188  0.1361  0.6097
 4049SOL    HW112739   4.415   3.683   2.746 -0.8774 -0.8897  0.7723
 4049SOL    HW212740   4.317   3.684   2.631  0.2673  1.3254 -0.2542
 4050SOL     OW12741   6.999   0.876   0.358 -0.0252  1.0218  0.0033
 4050SOL    HW112742   7.056   0.809   0.322  1.2829  2.6171 -1.0633
 4050SOL    HW212743   6.972   0.842   0.443  0.9042 -0.6526 -0.3263
 4051SOL     OW12744   6.522   2.477   0.698 -0.4331  0.0739 -0.0064
 4051SOL    HW112745   6.514   2.572   0.692  0.8182  0.2195  0.3526
 4051SOL    HW212746   6.463   2.452   0.769 -0.6832  0.5937 -0.0318
 4052SOL     OW12747   6.932   0.362   0.560 -0.2608  0.0318  0.1258
 4052SOL    HW112748   7.027   0.361   0.551 -0.1426 -0.1076  1.2770
 4052SOL    HW212749   6.912   0.443   0.606 -0.6957  0.0043 -0.0066
 4053SOL     OW12750   4.683   4.169   2.644  0.3208 -0.2626  0.1844
 4053SOL    HW112751   4.647   4.123   2.720  0.3389 -0.0685  0.3112
 4053SOL    HW212752   4.769   4.200   2.673 -0.8668  2.4881  1.1646
 4054SOL     OW12753   4.915   2.082   1.967  0.4251  0.1365 -0.1156
 4054SOL    HW112754   4.880   2.162   2.006 -0.6859 -0.1941 -0.3949
 4054SOL    HW212755   4.883   2.012   2.024  0.4173 -0.1972 -0.5248
 4055SOL     OW12756   0.133   2.737   1.114 -0.1732  0.0004  0.0722
 4055SOL    HW112757   0.087   2.685   1.048 -0.4173  0.6524 -0.2824
 4055SOL    HW212758   0.218   2.756   1.074  0.4233 -1.1939  0.7218
 4056SOL     OW12759   6.922   1.256   2.457  0.0076  0.7749  0.5183
 4056SOL    HW112760   6.969   1.199   2.396  0.6041  1.5156  0.2700
 4056SOL    HW212761   6.890   1.197   2.525  0.0569  0.0531 -0.0651
 4057SOL     OW12762   4.350   3.838   0.474 -0.2742  0.6682  0.2141
 4057SOL    HW112763   4.441   3.861   0.453 -0.4799  1.5841  0.2515
 4057SOL    HW212764   4.344   3.744   0.457  0.4299  0.7708 -0.7219
 4058SOL     OW12765   6.376   1.567   1.752  0.1968  0.6116 -0.1798
 4058SOL    HW112766   6.378   1.516   1.671  0.9008 -1.6974  1.1815
 4058SOL    HW212767   6.451   1.534   1.802 -0.5173  1.5955  1.6038
 4059SOL     OW12768   3.823   2.392   2.442  0.0601 -0.3566  0.3090
 4059SOL    HW112769   3.749   2.449   2.424  0.1239 -0.4292 -0.2261
 4059SOL    HW212770   3.799   2.308   2.402  1.4470  0.3064 -2.1561
 4060SOL     OW12771   7.142   3.364   0.947  0.0528 -0.8384 -0.1070
 4060SOL    HW112772   7.205   3.367   0.875 -0.6283 -0.7141 -0.7070
 4060SOL    HW212773   7.076   3.301   0.918 -1.1302  0.4787 -0.3395
 4061SOL     OW12774   4.658   3.972   3.438 -0.4315  0.8510  0.2478
 4061SOL    HW112775   4.600   3.916   3.387  0.1563 -0.1985  0.7040
 4061SOL    HW212776   4.602   4.008   3.507 -0.5104 -0.3823  0.8605
 4062SOL     OW12777   0.308   2.271   1.348 -0.0321 -0.2488 -0.7566
 4062SOL    HW112778   0.231   2.213   1.349  0.2741 -0.6907 -1.6073
 4062SOL    HW212779   0.271   2.359   1.347 -0.5204 -0.4449 -0.3607
 4063SOL     OW12780   5.405   3.333   0.060 -0.1070  0.4163  0.0134
 4063SOL    HW112781   5.341   3.379   0.006 -0.8756 -0.8882 -0.2253
 4063SOL    HW212782   5.386   3.241   0.046  0.2832  0.0365  1.7868
 4064SOL     OW12783   0.454   4.125   2.154  0.3907 -0.1908 -0.6665
 4064SOL    HW112784   0.430   4.032   2.144  1.5674 -0.4506 -1.3183
 4064SOL    HW212785   0.484   4.151   2.067 -0.0994  0.8625 -0.5316
 4065SOL     OW12786   6.343   2.098   2.989  0.0708  0.0375  0.6163
 4065SOL    HW112787   6.307   2.183   3.013  0.8137  0.3318  0.7402
 4065SOL    HW212788   6.267   2.042   2.973 -0.5692  1.6402 -2.8541
 4066SOL     OW12789   6.981   0.945   3.194  0.2199  0.1065 -0.0047
 4066SOL    HW112790   6.958   0.852   3.195  0.1566  0.0516  3.3148
 4066SOL    HW212791   6.912   0.988   3.244 -0.6645  2.3156 -2.8286
 4067SOL     OW12792   6.996   4.860   0.845  0.2132 -0.0085 -0.6590
 4067SOL    HW112793   7.073   4.900   0.885 -0.1570  0.0758 -0.0146
 4067SOL    HW212794   6.945   4.933   0.811 -2.0039  0.5483  3.1684
 4068SOL     OW12795   7.082   0.030   0.421 -0.0107 -0.4086  0.1532
 4068SOL    HW112796   7.056  -0.049   0.374  0.4016  0.1901 -1.1360
 4068SOL    HW212797   7.016   0.095   0.396  0.6747  0.1396 -0.2728
 4069SOL     OW12798   5.054   3.379   2.390  0.5304 -0.4330 -0.2227
 4069SOL    HW112799   5.066   3.448   2.325 -1.2769 -1.0015 -1.2476
 4069SOL    HW212800   4.968   3.397   2.428 -0.1216 -2.2176 -0.7237
 4070SOL     OW12801   5.754   2.102   0.411 -0.2839 -0.2033 -0.0192
 4070SOL    HW112802   5.808   2.122   0.334  1.2261 -1.4216  0.6538
 4070SOL    HW212803   5.666   2.128   0.386  0.0036 -1.2954 -2.4822
 4071SOL     OW12804   6.843   2.969   2.331 -0.6600  0.2386 -0.0155
 4071SOL    HW112805   6.818   2.914   2.257 -0.4016 -0.3351  0.3141
 4071SOL    HW212806   6.923   2.929   2.365 -1.5474 -0.4019  1.4586
 4072SOL     OW12807   5.698   3.267   1.845  0.5293  0.1643 -0.5768
 4072SOL    HW112808   5.654   3.205   1.903  1.7066 -0.7781 -0.6415
 4072SOL    HW212809   5.765   3.308   1.900  0.1601  0.9354 -0.6960
 4073SOL     OW12810   0.042   2.409   0.738 -0.1755  0.1200 -0.3081
 4073SOL    HW112811   0.091   2.340   0.784 -1.7886 -1.1612 -0.4294
 4073SOL    HW212812  -0.044   2.371   0.723 -1.6448  2.7011  0.9461
 4074SOL     OW12813   5.712   3.412   1.619  0.2492 -0.1069 -0.1292
 4074SOL    HW112814   5.735   3.504   1.634 -0.2304  0.0685 -0.4452
 4074SOL    HW212815   5.713   3.372   1.706 -0.2425  0.3659  0.0991
 4075SOL     OW12816   6.572   1.979   2.515  0.2297 -0.5295  0.3164
 4075SOL    HW112817   6.562   1.980   2.610 -1.9523 -0.8854  0.1575
 4075SOL    HW212818   6.590   1.888   2.493  1.5905 -0.2991  0.4355
 4076SOL     OW12819   7.419   3.073   1.060 -0.1881  0.4575 -0.0645
 4076SOL    HW112820   7.420   2.986   1.019  0.7454 -0.3733  1.6475
 4076SOL    HW212821   7.327   3.086   1.085 -0.0652 -0.8034  1.1695
 4077SOL     OW12822   7.003   0.860   2.376 -0.0427 -0.1542 -0.3078
 4077SOL    HW112823   6.915   0.847   2.340 -0.1369  2.7300 -1.3242
 4077SOL    HW212824   7.062   0.831   2.306 -0.1948  0.3832 -0.6568
 4078SOL     OW12825   7.321   2.084   3.060  0.0709 -0.2279  0.6008
 4078SOL    HW112826   7.409   2.056   3.083 -0.0740  0.1755  1.6966
 4078SOL    HW212827   7.303   2.157   3.119 -0.0085  1.4267 -1.3853
 4079SOL     OW12828   5.644   3.945   0.592  0.1939 -0.2342  0.5564
 4079SOL    HW112829   5.666   3.869   0.539  0.3398 -1.2590  2.0334
 4079SOL    HW212830   5.714   4.008   0.573  1.2362 -1.2606  0.8568
 4080SOL     OW12831   5.342   3.502   2.873  0.2654 -0.0539  0.1425
 4080SOL    HW112832   5.345   3.482   2.780 -1.4293  1.1417 -0.2071
 4080SOL    HW212833   5.434   3.515   2.898  1.0097 -2.7634 -0.7535
 4081SOL     OW12834   6.941   1.892   0.679  0.9234  0.2194 -0.7733
 4081SOL    HW112835   6.955   1.807   0.638 -0.7832  0.0702 -1.1416
 4081SOL    HW212836   6.846   1.905   0.674  0.8306  0.9994  1.5103
 4082SOL     OW12837   6.623   3.658   2.654 -0.0977 -0.0792  0.0076
 4082SOL    HW112838   6.546   3.708   2.627  0.6545  0.5752 -1.0026
 4082SOL    HW212839   6.695   3.720   2.646  0.6600 -0.9420  0.0797
 4083SOL     OW12840   6.629   3.858  -0.012 -0.3098 -0.2239 -0.2474
 4083SOL    HW112841   6.541   3.842  -0.047  0.2446 -1.9129 -0.9472
 4083SOL    HW212842   6.676   3.776  -0.027  1.9237  1.1921 -1.5177
 4084SOL     OW12843   6.892   3.624   1.905  0.7668 -0.2599 -0.1837
 4084SOL    HW112844   6.858   3.705   1.944  0.9907 -0.5662  0.6671
 4084SOL    HW212845   6.818   3.590   1.855  0.0511 -0.4927  0.9841
 4085SOL     OW12846   0.024   2.859   0.464  0.2428 -0.2108  0.0613
 4085SOL    HW112847   0.049   2.943   0.503  0.6094  0.2439 -1.1050
 4085SOL    HW212848  -0.018   2.811   0.536  2.1801 -0.0011  1.4247
 4086SOL     OW12849   2.530   1.047   0.217  0.1609  0.7227 -0.1026
 4086SOL    HW112850   2.544   0.964   0.263 -1.4540  0.5487  0.1241
 4086SOL    HW212851   2.609   1.059   0.164 -0.0209 -1.5170 -0.9766
 4087SOL     OW12852   6.419   2.262   1.693 -0.0205 -0.3841  0.0158
 4087SOL    HW112853   6.406   2.267   1.598  0.1137  0.2584  0.0255
 4087SOL    HW212854   6.331   2.259   1.729 -0.0802 -2.1530 -0.1853
 4088SOL     OW12855   5.712   4.651   0.285  0.4108 -0.2553  0.1511
 4088SOL    HW112856   5.751   4.680   0.367  1.1661 -2.0536  0.4870
 4088SOL    HW212857   5.622   4.628   0.308 -0.0202  1.1944 -0.0029
 4089SOL     OW12858   4.406   4.704   3.396  0.3158 -0.2568  0.4530
 4089SOL    HW112859   4.443   4.770   3.454  0.1355  0.1175  0.1438
 4089SOL    HW212860   4.420   4.739   3.308  0.9494 -0.9994  0.2424
 4090SOL     OW12861   6.614   3.217   0.277  0.1439  0.3698  0.0238
 4090SOL    HW112862   6.638   3.182   0.191 -0.2430  0.2631 -0.0439
 4090SOL    HW212863   6.614   3.312   0.265 -0.4060  0.3418 -0.2348
 4091SOL     OW12864   5.971   4.443   2.203  0.0459 -0.6094  0.2747
 4091SOL    HW112865   5.895   4.488   2.238  0.0873 -0.6151  0.3755
 4091SOL    HW212866   5.937   4.388   2.133 -0.2243 -1.4827  1.0639
 4092SOL     OW12867   6.926   1.552   1.464  0.0393 -0.0099  0.5795
 4092SOL    HW112868   6.845   1.600   1.483  0.4749  0.4061  1.4656
 4092SOL    HW212869   6.984   1.617   1.425  0.9396  0.4540  2.5755
 4093SOL     OW12870   5.798   0.141   1.047  0.3380  0.5079 -0.4464
 4093SOL    HW112871   5.799   0.072   1.113  3.1872  0.6262 -0.2451
 4093SOL    HW212872   5.716   0.188   1.063 -2.0412 -3.0567 -0.9622
 4094SOL     OW12873   6.217   0.052   2.163 -0.0730  0.0046  0.3396
 4094SOL    HW112874   6.208  -0.042   2.147 -0.3289  0.0660  0.1060
 4094SOL    HW212875   6.304   0.074   2.131 -0.2742 -0.0264 -0.2407
 4095SOL     OW12876   0.455   5.146   3.266 -0.2035 -0.1189  0.3324
 4095SOL    HW112877   0.400   5.212   3.308 -1.9998 -1.9611  1.0552
 4095SOL    HW212878   0.534   5.143   3.319 -1.2464 -0.4162  1.9572
 4096SOL     OW12879   5.883   4.156   1.508 -0.0066  0.0665  0.2716
 4096SOL    HW112880   5.914   4.241   1.477  1.0128  0.0325  1.1302
 4096SOL    HW212881   5.827   4.123   1.437 -2.3392  2.4357  0.8579
 4097SOL     OW12882   7.197   0.861   1.903  0.2684 -0.0641  0.6449
 4097SOL    HW112883   7.254   0.807   1.848  0.5118 -1.0887  1.8681
 4097SOL    HW212884   7.114   0.864   1.856  1.0341  0.7227 -0.7314
 4098SOL     OW12885   4.494   5.058   0.409 -0.2188 -0.6713  0.8179
 4098SOL    HW112886   4.489   5.035   0.502  0.6610 -0.4075  0.9474
 4098SOL    HW212887   4.547   4.988   0.370 -0.5750 -0.7752  0.5116
 4099SOL     OW12888   6.599   5.340   0.746 -0.8283  0.1887 -0.2290
 4099SOL    HW112889   6.597   5.377   0.834  1.4001 -0.8718  0.3508
 4099SOL    HW212890   6.658   5.398   0.697  1.8973 -1.8620  0.4192
 4100SOL     OW12891   4.380   3.138   0.470 -0.8984  0.2268  0.1277
 4100SOL    HW112892   4.379   3.170   0.561 -0.8834  2.2133 -0.5331
 4100SOL    HW212893   4.288   3.128   0.447 -0.8932 -1.0089  0.5803
 4101SOL     OW12894   0.174   3.245   2.765  0.2654  0.4469  0.2524
 4101SOL    HW112895   0.094   3.205   2.797  0.8501 -0.4634  0.6361
 4101SOL    HW212896   0.177   3.331   2.806 -0.2225  0.2594  0.6923
 4102SOL     OW12897   4.921   4.263   1.368  0.2929 -0.5234  0.4021
 4102SOL    HW112898   5.016   4.254   1.372  0.2739 -0.5224  0.9112
 4102SOL    HW212899   4.893   4.266   1.460 -0.0927  0.5378  0.2664
 4103SOL     OW12900   6.701   0.862   1.382  0.1218  0.2164  0.8886
 4103SOL    HW112901   6.670   0.949   1.358  2.2762  1.1567  1.2533
 4103SOL    HW212902   6.665   0.847   1.470 -1.3856  0.0971  0.2877
 4104SOL     OW12903   0.405   5.325   0.874  0.0232  0.1077 -0.2953
 4104SOL    HW112904   0.368   5.325   0.963  1.7193  0.2723  0.4467
 4104SOL    HW212905   0.385   5.413   0.841 -0.7730 -0.0111 -0.1425
 4105SOL     OW12906   4.799   1.102   1.985  0.2694  0.0821 -1.1265
 4105SOL    HW112907   4.865   1.088   2.053  0.1799 -3.3184 -1.5465
 4105SOL    HW212908   4.833   1.174   1.933  1.3402  1.4532  1.2903
 4106SOL     OW12909   5.417   4.849   0.230  0.3640 -0.1371  0.2946
 4106SOL    HW112910   5.470   4.928   0.238 -2.2338  1.5931  1.9150
 4106SOL    HW212911   5.413   4.832   0.136 -0.1364  2.5032 -0.2370
 4107SOL     OW12912   5.579   0.221   3.276 -0.8748  0.0395 -0.3435
 4107SOL    HW112913   5.630   0.283   3.224  2.1741 -1.8332  0.1800
 4107SOL    HW212914   5.530   0.171   3.211  0.9277 -0.5955 -1.2819
 4108SOL     OW12915   5.284   2.931   0.297 -0.3822 -0.0625  0.4187
 4108SOL    HW112916   5.372   2.916   0.333 -0.8523 -2.4619  0.7302
 4108SOL    HW212917   5.253   2.843   0.274 -2.3191  0.8472 -0.6423
 4109SOL     OW12918   6.298   2.555   0.153 -0.3165  0.4232  0.7318
 4109SOL    HW112919   6.325   2.537   0.063 -1.3167  0.8690  0.3225
 4109SOL    HW212920   6.329   2.479   0.203  0.7418  0.4412  0.1206
 4110SOL     OW12921   6.552   0.858   3.321 -0.1954 -0.0994 -0.2604
 4110SOL    HW112922   6.573   0.764   3.316 -0.3334 -0.4863  3.4610
 4110SOL    HW212923   6.632   0.902   3.293  0.1789 -1.3278 -1.2037
 4111SOL     OW12924   7.297   5.022   3.250 -0.0406  0.0570 -0.3974
 4111SOL    HW112925   7.301   5.097   3.310  1.4863  0.2840 -0.7354
 4111SOL    HW212926   7.372   5.034   3.192  1.2837 -2.5669  0.5722
 4112SOL     OW12927   0.121   4.313   2.569 -0.1721 -0.1098  0.0344
 4112SOL    HW112928   0.144   4.344   2.481  0.7221 -2.0193 -0.4519
 4112SOL    HW212929   0.205   4.300   2.613 -0.5986  0.3513  1.0345
 4113SOL     OW12930   5.505   3.977   3.118  0.3164 -0.1755  0.2434
 4113SOL    HW112931   5.601   3.972   3.120  0.2881 -0.3667  1.2539
 4113SOL    HW212932   5.486   4.065   3.086  0.8220 -0.2032 -0.1518
 4114SOL     OW12933   0.848   0.337   0.349 -0.6499 -0.2038 -0.1330
 4114SOL    HW112934   0.861   0.303   0.261 -1.7486  1.3121 -0.9365
 4114SOL    HW212935   0.773   0.288   0.383 -1.0391  0.0907 -0.5544
 4115SOL     OW12936   7.039   4.121   1.714  0.4826  0.0924  0.3066
 4115SOL    HW112937   7.051   4.204   1.760  1.5755  0.2037 -0.1423
 4115SOL    HW212938   6.962   4.082   1.754  0.3291  1.0343  0.9566
 4116SOL     OW12939   6.471   4.369   0.362 -0.4328 -0.2186  0.1191
 4116SOL    HW112940   6.477   4.378   0.457 -1.5371  0.3234  0.1532
 4116SOL    HW212941   6.552   4.324   0.337 -0.2747 -0.6514  1.3459
 4117SOL     OW12942   6.870   4.910   1.632 -0.6971  0.3236 -0.0363
 4117SOL    HW112943   6.859   4.815   1.633 -1.1418  0.3759  1.2047
 4117SOL    HW212944   6.877   4.932   1.539  2.6135 -1.2552 -0.3211
 4118SOL     OW12945   6.270   5.039   2.309 -0.1155 -0.2487  0.2958
 4118SOL    HW112946   6.288   4.953   2.268 -0.5642 -0.1554 -0.1047
 4118SOL    HW212947   6.271   5.100   2.235 -0.5498 -0.0185  0.4823
 4119SOL     OW12948   4.439   2.782   1.529 -0.1024 -0.6460 -0.5222
 4119SOL    HW112949   4.350   2.775   1.563  0.0686  0.1146  0.1214
 4119SOL    HW212950   4.444   2.717   1.459 -0.3008 -2.7145  1.2841
 4120SOL     OW12951   6.302   4.756   1.586 -0.0433 -0.2384 -0.8454
 4120SOL    HW112952   6.233   4.798   1.534  1.1685  1.6477 -1.0144
 4120SOL    HW212953   6.325   4.822   1.652  0.9192 -1.2248 -0.1715
 4121SOL     OW12954   4.744   4.462   3.235  0.0038  0.2059  0.8418
 4121SOL    HW112955   4.825   4.512   3.250  0.3456  0.8094 -2.2878
 4121SOL    HW212956   4.695   4.516   3.173 -1.3665 -1.6035  0.2917
 4122SOL     OW12957   1.544   4.646   3.450 -0.1973  0.5043  0.1913
 4122SOL    HW112958   1.464   4.594   3.450 -1.8533  2.8489 -1.3078
 4122SOL    HW212959   1.588   4.623   3.531 -2.5325 -0.6787  1.2077
 4123SOL     OW12960   7.071   0.541   2.309 -0.1276  0.9168  0.0274
 4123SOL    HW112961   7.124   0.578   2.239 -2.8039  2.4351 -1.3377
 4123SOL    HW212962   6.998   0.602   2.319 -0.8942 -0.3008  2.8042
 4124SOL     OW12963   5.485   3.949   1.077  0.1219 -0.3251 -0.1645
 4124SOL    HW112964   5.414   3.891   1.048 -1.1873  0.4512  1.3288
 4124SOL    HW212965   5.479   3.947   1.173  2.2539 -0.3603  0.0023
 4125SOL     OW12966   7.166   4.511   0.609  0.1953  0.1914 -0.4763
 4125SOL    HW112967   7.138   4.420   0.619 -0.4132  0.3131 -0.9685
 4125SOL    HW212968   7.125   4.557   0.682  0.5006  0.0724 -0.2294
 4126SOL     OW12969   6.327   4.051   0.772  0.5013  0.1706  0.7463
 4126SOL    HW112970   6.259   4.114   0.796  0.5167  0.0073  1.2212
 4126SOL    HW212971   6.362   4.019   0.855  0.6963 -0.2494  0.5102
 4127SOL     OW12972   0.031   3.327   3.175 -0.3684  0.5109 -0.1023
 4127SOL    HW112973  -0.052   3.331   3.128  1.1539 -1.3010 -3.2136
 4127SOL    HW212974   0.044   3.234   3.195  1.3808  0.5952 -0.6557
 4128SOL     OW12975   7.141   4.234   0.648  0.3060 -0.0357  0.0445
 4128SOL    HW112976   7.048   4.225   0.625  0.2462  0.6171  0.0259
 4128SOL    HW212977   7.186   4.175   0.588 -0.0774 -0.1927 -0.0928
 4129SOL     OW12978   4.361   3.963   2.799  0.3041 -0.1744 -0.4183
 4129SOL    HW112979   4.374   4.003   2.713 -2.9463 -0.2958 -1.0812
 4129SOL    HW212980   4.307   4.025   2.847 -1.8468 -2.0913 -0.1968
 4130SOL     OW12981   3.602   4.631   1.700 -0.2910 -0.6390 -0.4108
 4130SOL    HW112982   3.586   4.668   1.786 -0.4381 -1.3486 -0.1216
 4130SOL    HW212983   3.544   4.554   1.695 -1.2145  0.0924 -1.6307
 4131SOL     OW12984   5.582   2.824   0.018 -0.1717 -0.0248 -0.0674
 4131SOL    HW112985   5.623   2.880   0.082  3.0728 -0.4139 -1.6225
 4131SOL    HW212986   5.610   2.735   0.042 -0.6045 -0.3867 -0.8550
 4132SOL     OW12987   6.925   3.728   0.822 -0.1764 -0.4276  0.3155
 4132SOL    HW112988   6.856   3.661   0.820 -0.4551 -0.1669  0.9740
 4132SOL    HW212989   6.988   3.696   0.886  1.0292 -1.3326 -1.2396
 4133SOL     OW12990   5.274   5.031   0.447  0.0136 -0.5994 -0.4223
 4133SOL    HW112991   5.316   4.989   0.372  0.6313 -0.3052 -0.2543
 4133SOL    HW212992   5.282   5.125   0.430  0.2340 -0.5273  0.0420
 4134SOL     OW12993   0.087   4.435   2.067  0.1583 -0.2408  0.7917
 4134SOL    HW112994   0.022   4.483   2.017 -0.2247 -2.4313 -0.9965
 4134SOL    HW212995   0.172   4.466   2.034 -0.0763 -0.5537 -0.1300
 4135SOL     OW12996   5.098   4.781   1.600  0.0180  0.1355  0.0787
 4135SOL    HW112997   5.026   4.777   1.664  1.5914 -0.6005  1.9101
 4135SOL    HW212998   5.131   4.871   1.607 -0.8514  0.5624 -0.9753
 4136SOL     OW12999   7.272   4.230   2.155 -0.4447  0.8077 -0.2039
 4136SOL    HW113000   7.224   4.150   2.131 -2.0724  2.2046 -1.8958
 4136SOL    HW213001   7.351   4.198   2.198 -0.7928 -1.7453 -1.2697
 4137SOL     OW13002   7.148   0.097   1.941  0.1054  0.3803  0.4862
 4137SOL    HW113003   7.057   0.084   1.967 -0.5886  0.1700 -1.8372
 4137SOL    HW213004   7.193   0.019   1.973 -1.0716 -0.7602 -0.4648
 4138SOL     OW13005   3.699   0.422   2.952 -0.0998 -0.5366  0.3785
 4138SOL    HW113006   3.605   0.404   2.965 -0.3716  0.2677 -0.4077
 4138SOL    HW213007   3.704   0.517   2.943  1.0433 -0.3738  2.3095
 4139SOL     OW13008   5.382   3.948   0.550 -0.0094  0.0000  0.3195
 4139SOL    HW113009   5.474   3.964   0.573  0.1706 -0.1400 -0.2957
 4139SOL    HW213010   5.334   3.976   0.628  0.7245 -2.6274  1.8457
 4140SOL     OW13011   0.414   4.256   1.038 -0.0655 -0.3284  0.0552
 4140SOL    HW113012   0.441   4.224   0.952  1.9419 -1.5435  1.0612
 4140SOL    HW213013   0.461   4.338   1.050  0.8100 -0.8956  0.5660
 4141SOL     OW13014   4.937   4.125   2.262 -0.3754  0.2067 -0.0254
 4141SOL    HW113015   4.951   4.031   2.278 -2.4843 -0.4517 -1.6148
 4141SOL    HW213016   4.950   4.166   2.347  0.0677 -1.5847  0.8236
 4142SOL     OW13017   5.132   5.122   0.964  0.0475  0.6291  0.3601
 4142SOL    HW113018   5.207   5.153   1.015  1.1465  0.7636 -1.2689
 4142SOL    HW213019   5.170   5.059   0.902 -0.9299  1.7065 -1.4162
 4143SOL     OW13020   5.373   2.637   3.238  0.3483 -0.3888  0.2274
 4143SOL    HW113021   5.309   2.633   3.309  0.0763 -0.1483 -0.0005
 4143SOL    HW213022   5.440   2.573   3.262  0.1659 -0.4386  0.6088
 4144SOL     OW13023   5.617   2.520   2.792 -0.3472 -0.8487 -0.7706
 4144SOL    HW113024   5.577   2.604   2.769 -1.2776 -0.8930  0.5811
 4144SOL    HW213025   5.704   2.543   2.822 -0.6104 -0.3601 -0.3658
 4145SOL     OW13026   7.191   2.620   3.455  0.3553 -0.0781  0.4966
 4145SOL    HW113027   7.166   2.711   3.471  0.6958  0.1217 -0.1069
 4145SOL    HW213028   7.284   2.616   3.477  0.2802 -0.3483  0.7801
 4146SOL     OW13029   4.905   3.926   2.867 -0.5879  0.2159 -0.5785
 4146SOL    HW113030   4.911   3.905   2.774 -2.5548 -0.8580 -0.5164
 4146SOL    HW213031   4.839   3.995   2.873  0.5151  1.2792 -0.0606
 4147SOL     OW13032   4.683   4.113   2.904  0.2960  0.2918  0.1489
 4147SOL    HW113033   4.605   4.108   2.959  0.8204 -1.1047  0.8194
 4147SOL    HW213034   4.740   4.176   2.949 -0.8641  2.2480 -0.9726
 4148SOL     OW13035   1.007   2.226   2.130 -0.7060  0.2356 -0.3478
 4148SOL    HW113036   1.079   2.229   2.192 -1.0346  0.6890  0.0193
 4148SOL    HW213037   1.040   2.271   2.052 -0.4880  0.1566 -0.3008
 4149SOL     OW13038   6.154   5.292   1.416  0.0070 -0.2297  0.4941
 4149SOL    HW113039   6.116   5.378   1.400  2.4693  1.2292  1.8031
 4149SOL    HW213040   6.209   5.276   1.339 -1.1659 -1.0905 -0.1777
 4150SOL     OW13041   1.090   3.288   3.417  0.2405 -0.5843  0.5553
 4150SOL    HW113042   1.111   3.372   3.459 -1.3311 -0.9526  2.2147
 4150SOL    HW213043   1.044   3.313   3.337 -0.6799  0.1783  1.2865
 4151SOL     OW13044   4.700   4.381   3.481  0.0547  0.1702 -0.1455
 4151SOL    HW113045   4.702   4.415   3.392 -0.5363 -0.0339 -0.2332
 4151SOL    HW213046   4.733   4.454   3.534  1.1451  0.0280 -0.6046
 4152SOL     OW13047   6.167   3.289   0.078  0.1728  0.0282 -0.2131
 4152SOL    HW113048   6.182   3.357   0.012  0.9698 -0.5276 -0.6303
 4152SOL    HW213049   6.101   3.232   0.039 -1.1236  1.0108  0.4946
 4153SOL     OW13050   5.172   0.279   0.836 -0.6255 -0.3696  0.3362
 4153SOL    HW113051   5.183   0.241   0.748 -1.8870  0.7384 -0.3431
 4153SOL    HW213052   5.078   0.273   0.853 -0.3268 -1.0705  1.8745
 4154SOL     OW13053   6.346   4.629   3.079 -0.2777  0.2551 -0.1848
 4154SOL    HW113054   6.440   4.642   3.072  0.2755 -2.1877  1.5086
 4154SOL    HW213055   6.308   4.692   3.017  2.5552 -0.5660 -2.9621
 4155SOL     OW13056   5.299   2.078   3.408  0.6782 -0.5399  0.0941
 4155SOL    HW113057   5.225   2.020   3.423  0.3944  0.5240  3.5132
 4155SOL    HW213058   5.265   2.145   3.349 -0.5856 -0.9320  0.3476
 4156SOL     OW13059   7.317   5.281   2.039 -0.3770  0.4697 -0.4378
 4156SOL    HW113060   7.406   5.264   2.069  0.2116  0.9491 -1.8538
 4156SOL    HW213061   7.315   5.249   1.949 -1.3724  1.2732 -0.7218
 4157SOL     OW13062   5.529   0.410   1.349  0.5948 -0.6975  0.2031
 4157SOL    HW113063   5.536   0.504   1.329  0.7286 -0.8478 -0.4604
 4157SOL    HW213064   5.569   0.366   1.274 -0.2430 -1.3147  0.1090
 4158SOL     OW13065   5.086   5.361   0.858  0.9919  0.3357 -0.1892
 4158SOL    HW113066   5.082   5.273   0.895  0.7453  0.8762  1.1155
 4158SOL    HW213067   5.017   5.410   0.902  0.3964  0.9138 -1.6918
 4159SOL     OW13068   6.676   4.582   0.552 -0.0905 -0.2963  0.5309
 4159SOL    HW113069   6.722   4.517   0.499 -1.3017 -0.1626 -0.7573
 4159SOL    HW213070   6.722   4.665   0.533  0.0105 -0.3931  0.3473
 4160SOL     OW13071   3.680   3.812   2.890 -0.6048  0.0097  0.3666
 4160SOL    HW113072   3.604   3.859   2.856 -0.9250  0.3909  1.5896
 4160SOL    HW213073   3.752   3.875   2.884 -0.6968  0.1323  0.5482
 4161SOL     OW13074   4.965   3.046   1.903 -0.2638 -0.7387  0.3271
 4161SOL    HW113075   4.871   3.040   1.888 -0.1701  1.3777 -1.6751
 4161SOL    HW213076   5.005   3.031   1.817  0.9926  1.6184  0.4036
 4162SOL     OW13077   5.084   4.244   0.048 -0.6583 -0.2246  0.0108
 4162SOL    HW113078   5.002   4.194   0.051 -0.8395 -0.0352 -1.1955
 4162SOL    HW213079   5.133   4.205  -0.024 -0.4618  0.8007 -0.4299
 4163SOL     OW13080   7.230   3.526   1.341  0.3783 -0.4723 -0.8943
 4163SOL    HW113081   7.222   3.470   1.418  1.2981  1.2103  0.4961
 4163SOL    HW213082   7.281   3.601   1.371  0.0010  0.6686 -2.9214
 4164SOL     OW13083   6.351   1.028   2.574 -0.3922 -0.5642  0.4832
 4164SOL    HW113084   6.257   1.015   2.578 -0.7904  1.3896 -1.1347
 4164SOL    HW213085   6.363   1.122   2.592  0.9165 -0.1068 -2.2779
 4165SOL     OW13086   6.654   4.264   2.300 -0.0679  0.5681  0.0671
 4165SOL    HW113087   6.651   4.336   2.362  0.4345  2.2953 -1.7924
 4165SOL    HW213088   6.562   4.237   2.290 -0.2946  1.1402  0.5862
 4166SOL     OW13089   0.060   5.151   3.058 -0.1593  0.0923 -0.1865
 4166SOL    HW113090   0.122   5.080   3.076  0.5026  0.7307  0.1161
 4166SOL    HW213091   0.084   5.181   2.970  0.6125  0.9752  0.3098
 4167SOL     OW13092   5.576   4.121   3.426 -0.1765 -0.4739 -0.5120
 4167SOL    HW113093   5.566   4.181   3.352  0.3475  0.6986  0.3473
 4167SOL    HW213094   5.647   4.063   3.399 -0.8279 -0.8751 -1.4367
 4168SOL     OW13095   0.532   0.631   3.137 -0.2059  0.3355  0.1993
 4168SOL    HW113096   0.539   0.718   3.097 -0.5815 -0.3095 -1.3175
 4168SOL    HW213097   0.449   0.634   3.185  0.9601  1.6156  2.2863
 4169SOL     OW13098   1.577   4.538   2.381  0.1511 -0.1109 -0.2708
 4169SOL    HW113099   1.595   4.472   2.448  1.0109 -0.0026 -0.3874
 4169SOL    HW213100   1.495   4.578   2.409 -0.7029 -1.6138 -0.5031
 4170SOL     OW13101   4.166   4.763   0.611 -0.0524 -0.2464 -0.7147
 4170SOL    HW113102   4.072   4.746   0.601 -0.3120  0.7337 -0.0687
 4170SOL    HW213103   4.182   4.751   0.704  0.2375  0.6245 -0.6448
 4171SOL     OW13104   1.125   3.986   2.394  0.2438 -0.0019 -0.0738
 4171SOL    HW113105   1.111   4.065   2.447 -1.1467  0.1176 -0.5855
 4171SOL    HW213106   1.196   4.011   2.334 -0.0853  0.8176 -0.1405
 4172SOL     OW13107   6.515   3.542   3.239 -0.7249 -0.3419 -0.6300
 4172SOL    HW113108   6.599   3.577   3.209  0.4639 -0.3416  2.3320
 4172SOL    HW213109   6.536   3.454   3.270 -1.2527  0.4033  2.1361
 4173SOL     OW13110   6.409   0.409   2.108 -0.3605 -0.0864 -0.3513
 4173SOL    HW113111   6.486   0.404   2.164 -1.0923 -1.4176  0.6127
 4173SOL    HW213112   6.347   0.465   2.155 -1.3528 -1.9895  0.7464
 4174SOL     OW13113   6.495   2.903   2.887 -0.5454  0.7123  0.1447
 4174SOL    HW113114   6.550   2.826   2.900 -0.0105  0.8664 -1.0135
 4174SOL    HW213115   6.455   2.919   2.972  2.8002  1.8228  1.6523
 4175SOL     OW13116   1.169   1.076   3.107  0.0069  0.6435 -0.4977
 4175SOL    HW113117   1.216   1.159   3.112 -1.6234  1.6148 -0.4956
 4175SOL    HW213118   1.080   1.101   3.082 -1.0117 -0.9272  1.3348
 4176SOL     OW13119   1.078   3.929   2.685  0.2662 -0.1088  0.5218
 4176SOL    HW113120   1.079   3.857   2.622 -0.6148  1.3857 -1.2999
 4176SOL    HW213121   1.004   3.910   2.742 -1.3340  0.3756 -1.2965
 4177SOL     OW13122   5.739   4.958   1.036 -0.4689  0.4161 -0.1845
 4177SOL    HW113123   5.745   4.988   0.945 -0.6200  1.5793  0.1701
 4177SOL    HW213124   5.673   4.889   1.034 -0.9534  0.8818 -0.8604
 4178SOL     OW13125   5.877   3.994   2.502  0.0512 -0.0683 -0.1106
 4178SOL    HW113126   5.947   4.006   2.437  0.0445 -0.6197 -0.2258
 4178SOL    HW213127   5.895   3.908   2.540 -0.3729 -0.0656  0.0983
 4179SOL     OW13128   6.089   4.145   1.971 -0.1452 -0.9597  0.1606
 4179SOL    HW113129   6.162   4.129   1.912 -0.4040  0.4529 -0.5962
 4179SOL    HW213130   6.014   4.104   1.928 -0.1240 -0.8813  0.0477
 4180SOL     OW13131   6.136   4.704   2.054  0.1937 -0.0193 -0.1088
 4180SOL    HW113132   6.120   4.618   2.015 -0.4900 -0.4334  1.0330
 4180SOL    HW213133   6.082   4.705   2.133 -0.9886  2.0360 -0.8685
 4181SOL     OW13134   5.957   3.657   0.369  0.1790 -0.3367  0.1445
 4181SOL    HW113135   5.970   3.614   0.454 -0.1437 -0.2546  0.2361
 4181SOL    HW213136   5.880   3.712   0.382 -0.1199 -0.6382 -0.3198
 4182SOL     OW13137   4.840   5.019   2.868 -0.3786 -0.5389 -0.1061
 4182SOL    HW113138   4.830   4.927   2.844  0.2093 -0.3267 -1.2638
 4182SOL    HW213139   4.930   5.040   2.845 -0.6086  0.4124 -0.1808
 4183SOL     OW13140   0.321   3.589   1.442  0.4249  0.1551 -0.1490
 4183SOL    HW113141   0.402   3.541   1.424  0.9589  0.6545  0.8176
 4183SOL    HW213142   0.286   3.548   1.521 -1.7879 -1.8923 -2.0237
 4184SOL     OW13143   0.057   1.188   2.608  0.4205 -0.0248 -0.3384
 4184SOL    HW113144   0.060   1.101   2.569  0.9654 -0.0208 -0.3156
 4184SOL    HW213145  -0.026   1.190   2.657  0.4077 -0.5286 -0.3357
 4185SOL     OW13146   7.391   0.140   1.192  0.2887  0.1522 -0.2236
 4185SOL    HW113147   7.370   0.056   1.151  1.6772 -0.2806 -0.0948
 4185SOL    HW213148   7.329   0.147   1.264 -0.5437 -0.2481 -0.8744
 4186SOL     OW13149   6.268   0.744   2.566 -0.0095  0.4418 -0.1231
 4186SOL    HW113150   6.319   0.823   2.579  0.3017  0.5832 -1.9835
 4186SOL    HW213151   6.237   0.749   2.476 -0.3346 -1.3588 -0.1590
 4187SOL     OW13152   6.013   4.375   1.367  0.3688  0.0354 -0.5755
 4187SOL    HW113153   6.048   4.443   1.310  0.0066 -1.0443 -2.1232
 4187SOL    HW213154   6.072   4.301   1.355 -0.7810 -0.8387 -1.0079
 4188SOL     OW13155   6.863   4.273   1.949  0.0246  1.0655  0.2341
 4188SOL    HW113156   6.854   4.337   2.019 -0.7017  0.7641  0.4267
 4188SOL    HW213157   6.777   4.270   1.907  0.6337  1.7607 -1.1474
 4189SOL     OW13158   6.627   4.682   0.855  0.2982 -0.0602  0.2423
 4189SOL    HW113159   6.645   4.641   0.771 -3.8354 -0.5733 -0.5785
 4189SOL    HW213160   6.689   4.641   0.915  2.5826 -0.5407 -2.2271
 4190SOL     OW13161   6.013   3.277   0.609 -0.4341 -0.1631  0.0621
 4190SOL    HW113162   5.994   3.273   0.515  2.5894 -1.1019 -0.6289
 4190SOL    HW213163   6.042   3.367   0.624 -1.7893  0.2465  0.3349
 4191SOL     OW13164   5.624   4.646   2.547 -0.0318  0.8818 -0.1111
 4191SOL    HW113165   5.599   4.558   2.577 -0.2936  0.5484 -1.2272
 4191SOL    HW213166   5.556   4.703   2.583 -1.8811  0.1359 -2.1418
 4192SOL     OW13167   5.481   3.592   3.203  0.2509  0.0925 -0.0772
 4192SOL    HW113168   5.516   3.632   3.124 -0.6088  1.4511  0.2027
 4192SOL    HW213169   5.415   3.530   3.171 -0.5536  1.1035 -0.4209
 4193SOL     OW13170   6.340   0.006   1.780  0.1013  0.0687 -0.1850
 4193SOL    HW113171   6.338   0.096   1.813  0.2591  0.1259 -0.3271
 4193SOL    HW213172   6.397   0.010   1.703  0.0476 -0.1381 -0.2369
 4194SOL     OW13173   5.592   1.091   0.169 -0.0885 -0.0243  0.2157
 4194SOL    HW113174   5.564   1.178   0.197  0.4831 -0.5115  2.4886
 4194SOL    HW213175   5.583   1.036   0.247  1.6105 -1.4972 -0.5477
 4195SOL     OW13176   5.568   1.626   0.622  0.0256 -0.4154  0.1659
 4195SOL    HW113177   5.509   1.632   0.546  0.1206  0.7490  0.1696
 4195SOL    HW213178   5.514   1.655   0.696  0.4909  0.3452  0.2206
 4196SOL     OW13179   5.353   4.305   0.204  0.2803 -0.3558  0.0270
 4196SOL    HW113180   5.307   4.331   0.284  0.8378 -2.1458  0.9705
 4196SOL    HW213181   5.287   4.258   0.152  0.2141 -0.1537 -0.0739
 4197SOL     OW13182   6.763   4.987   2.117  0.2678 -0.3932 -0.4442
 4197SOL    HW113183   6.745   4.900   2.154  1.2475 -0.6579 -0.5683
 4197SOL    HW213184   6.853   4.981   2.085  0.1651  0.5133 -0.9198
 4198SOL     OW13185   5.847   4.109   0.536 -0.6590 -0.3785 -0.2014
 4198SOL    HW113186   5.802   4.184   0.495 -1.7966  0.1448  1.8497
 4198SOL    HW213187   5.924   4.148   0.578 -0.1737 -0.7084 -0.7715
 4199SOL     OW13188   4.248   4.075   0.637  0.4264  0.1895  0.1904
 4199SOL    HW113189   4.282   3.992   0.603 -0.2877  0.0897 -0.2972
 4199SOL    HW213190   4.201   4.051   0.717  0.1078  0.1061 -0.0219
 4200SOL     OW13191   7.310   3.214   1.860 -0.4265 -0.0749 -0.4560
 4200SOL    HW113192   7.389   3.186   1.906 -0.8442  0.0879  0.3725
 4200SOL    HW213193   7.238   3.194   1.920 -1.2090 -1.7845 -1.8646
 4201SOL     OW13194   5.356   2.999   2.422  0.2971 -0.2052 -0.0554
 4201SOL    HW113195   5.296   2.926   2.438  0.1051 -0.3921 -1.4974
 4201SOL    HW213196   5.442   2.957   2.413  0.0865 -0.3376 -1.5392
 4202SOL     OW13197   6.546   0.579   2.840  0.3526  0.5855  0.1943
 4202SOL    HW113198   6.562   0.673   2.839  1.2531  0.4375  0.1297
 4202SOL    HW213199   6.536   0.557   2.933  0.7701  0.6388  0.2508
 4203SOL     OW13200   6.908   1.208   1.966  0.1328 -0.0021 -0.0714
 4203SOL    HW113201   6.930   1.163   1.884  1.9197 -0.3100  0.5340
 4203SOL    HW213202   6.835   1.158   2.003 -0.3415 -0.1705 -1.1908
 4204SOL     OW13203   6.146   5.077   2.742  0.0912 -0.7126 -0.4947
 4204SOL    HW113204   6.135   5.115   2.655 -1.2351 -1.9027 -0.8846
 4204SOL    HW213205   6.057   5.070   2.777  0.6041 -0.1814  1.0152
 4205SOL     OW13206   5.387   2.986   1.918 -0.1007  0.7132 -0.2213
 4205SOL    HW113207   5.336   3.067   1.918  1.6773  1.9107 -1.1019
 4205SOL    HW213208   5.406   2.970   2.010 -1.6599  0.4695  0.0853
 4206SOL     OW13209   6.606   4.673   2.985  0.0062 -0.4377 -0.4911
 4206SOL    HW113210   6.666   4.747   2.989  0.7108 -0.8206 -2.5711
 4206SOL    HW213211   6.662   4.598   2.964 -0.5420 -1.8337  2.4220
 4207SOL     OW13212   6.282   4.807   2.867  0.7837  0.1529 -0.2430
 4207SOL    HW113213   6.205   4.779   2.818 -0.1597 -0.1419  1.3384
 4207SOL    HW213214   6.307   4.891   2.827 -0.6252  0.4704 -0.5152
 4208SOL     OW13215   4.331   0.373   1.791  0.1351  0.2741 -0.5553
 4208SOL    HW113216   4.337   0.437   1.720 -0.3364  0.4609 -0.4243
 4208SOL    HW213217   4.370   0.417   1.867  0.2254  0.2374 -0.5796
 4209SOL     OW13218   5.761   4.581   1.888  0.1446  0.4545 -0.1682
 4209SOL    HW113219   5.741   4.504   1.940  0.5102  0.8403  0.5610
 4209SOL    HW213220   5.836   4.556   1.835 -0.6558 -0.1661 -1.0420
 4210SOL     OW13221   5.435   4.370   1.853 -0.0246 -0.1299  0.0273
 4210SOL    HW113222   5.403   4.443   1.799 -0.3452 -1.0836 -1.1170
 4210SOL    HW213223   5.505   4.331   1.802  0.3330 -0.4734  0.7603
 4211SOL     OW13224   7.217   5.098   2.538  1.2000  0.3057 -0.8017
 4211SOL    HW113225   7.267   5.070   2.615  0.0122  0.2857 -0.0070
 4211SOL    HW213226   7.194   5.017   2.493  0.6281  0.2093 -0.3473
 4212SOL     OW13227   5.314   5.170   1.175 -0.5763  0.1361  0.8637
 4212SOL    HW113228   5.349   5.209   1.256  0.1033  0.9795  0.1744
 4212SOL    HW213229   5.279   5.086   1.203  0.4337  0.0333  1.8986
 4213SOL     OW13230   7.215   4.296   2.996 -0.4599  0.6728 -0.1823
 4213SOL    HW113231   7.200   4.230   2.928 -0.4005 -0.4278  0.8327
 4213SOL    HW213232   7.225   4.245   3.077  0.2266  1.8907  0.5363
 4214SOL     OW13233   5.145   4.721   2.776  0.1631 -0.6744 -0.3064
 4214SOL    HW113234   5.103   4.699   2.859  1.4284 -0.4816  0.4131
 4214SOL    HW213235   5.125   4.813   2.763 -0.9947 -0.9736 -0.8214
 4215SOL     OW13236   5.178   2.680   3.464  0.3428 -0.2216  0.3106
 4215SOL    HW113237   5.140   2.757   3.507  0.5636  0.8556 -1.3273
 4215SOL    HW213238   5.235   2.642   3.530  0.2015  1.0025  1.1875
 4216SOL     OW13239   4.536   3.142   2.415  0.5527  0.2368 -0.3673
 4216SOL    HW113240   4.446   3.168   2.395  0.5887 -0.6751 -1.8799
 4216SOL    HW213241   4.555   3.183   2.499 -1.7161 -0.6046  0.6207
 4217SOL     OW13242   7.186   4.234   2.600  0.4751  0.0920  0.5682
 4217SOL    HW113243   7.253   4.180   2.642  0.8814  0.1644  0.0219
 4217SOL    HW213244   7.212   4.324   2.620 -0.6119  0.1029  2.1136
 4218SOL     OW13245   5.507   3.261   3.058  0.6746  0.3225 -0.5453
 4218SOL    HW113246   5.418   3.230   3.041  1.3936 -1.9085 -0.5893
 4218SOL    HW213247   5.551   3.255   2.973  0.7602  1.8891 -0.6330
 4219SOL     OW13248   6.862   2.345   1.066  0.6894  0.3743 -0.4994
 4219SOL    HW113249   6.887   2.296   1.144 -1.0841  1.2721  0.6737
 4219SOL    HW213250   6.864   2.437   1.093  3.0436  1.0053 -2.3956
 4220SOL     OW13251   5.353   3.757   0.940 -0.2137 -0.0545 -0.1991
 4220SOL    HW113252   5.399   3.673   0.948 -0.5610 -0.4567 -1.8492
 4220SOL    HW213253   5.299   3.746   0.862 -2.9619  0.4886  1.5180
 4221SOL     OW13254   5.756   0.645   1.928  0.3398  0.2925  0.0876
 4221SOL    HW113255   5.722   0.661   1.840  1.9348  0.2656 -0.5663
 4221SOL    HW213256   5.789   0.731   1.957  0.0676  0.2425  0.5595
 4222SOL     OW13257   3.867   2.393   3.175  0.0948  0.7256  0.2131
 4222SOL    HW113258   3.815   2.432   3.245  0.8166  0.6451  0.8081
 4222SOL    HW213259   3.846   2.446   3.098 -1.5729  0.1197  0.2029
 4223SOL     OW13260   4.348   5.264   1.763  0.7347  0.0107 -1.1149
 4223SOL    HW113261   4.376   5.340   1.815 -0.4727  0.0718 -0.5347
 4223SOL    HW213262   4.358   5.293   1.672  1.1954  0.5164 -0.9106
 4224SOL     OW13263   0.313   5.357   3.418  0.1830 -0.1736  0.4602
 4224SOL    HW113264   0.277   5.446   3.413  0.2160 -0.0136  2.3844
 4224SOL    HW213265   0.238   5.300   3.406  0.3690  0.0200 -2.3257
 4225SOL     OW13266   6.358   4.844   2.151 -0.4279  0.5969 -0.0592
 4225SOL    HW113267   6.396   4.899   2.083  2.2666 -1.4596 -0.4283
 4225SOL    HW213268   6.280   4.805   2.111  0.0459  0.8898 -1.2995
 4226SOL     OW13269   1.704   1.420   2.724  0.7470  0.1223 -0.0866
 4226SOL    HW113270   1.769   1.370   2.774  1.4832  0.9234 -0.2254
 4226SOL    HW213271   1.731   1.410   2.633 -0.2643 -0.8587 -0.3071
 4227SOL     OW13272   6.894   1.413   2.178 -0.1980 -0.3897  0.3234
 4227SOL    HW113273   6.885   1.335   2.124 -0.4279 -0.3881  0.3572
 4227SOL    HW213274   6.927   1.381   2.262 -2.3731 -0.7610  1.1066
 4228SOL     OW13275   5.718   3.903   0.081 -0.5878  0.7788  0.4448
 4228SOL    HW113276   5.636   3.866   0.114  0.5848 -1.7537  0.7651
 4228SOL    HW213277   5.762   3.937   0.159 -1.3278  2.2370  0.2582
 4229SOL     OW13278   6.442   3.290   3.034 -0.0983  0.3200  0.0383
 4229SOL    HW113279   6.367   3.337   3.069 -0.0374 -0.3903  1.2080
 4229SOL    HW213280   6.482   3.350   2.971 -2.1235  0.3721 -1.2699
 4230SOL     OW13281   5.728   4.238   2.808 -0.2337  0.2614  0.3699
 4230SOL    HW113282   5.732   4.288   2.726  2.1517  1.3631  1.0566
 4230SOL    HW213283   5.647   4.188   2.802 -1.4810  2.3098 -1.4996
 4231SOL     OW13284   1.452   0.458   1.419 -0.3864 -0.1974  0.0470
 4231SOL    HW113285   1.513   0.527   1.394  0.2364 -0.4752  0.7589
 4231SOL    HW213286   1.501   0.403   1.481 -0.8736 -1.2676 -0.4868
 4232SOL     OW13287   6.056   0.338   2.730 -0.1913  0.4488 -0.4875
 4232SOL    HW113288   6.063   0.390   2.810  1.3008  0.4445 -0.5779
 4232SOL    HW213289   5.968   0.354   2.697 -1.9035 -1.6283  2.5757
 4233SOL     OW13290   6.611   5.310   3.483  0.1889  0.3905  0.7024
 4233SOL    HW113291   6.597   5.226   3.438  0.9264 -0.2440  1.6145
 4233SOL    HW213292   6.668   5.288   3.557  1.0975  1.8364  0.4713
 4234SOL     OW13293   6.787   4.676   1.083  0.0368 -0.3523  0.1279
 4234SOL    HW113294   6.858   4.738   1.101 -0.2794  0.2359 -0.6154
 4234SOL    HW213295   6.710   4.715   1.125 -0.0977 -0.4054 -0.0722
 4235SOL     OW13296   5.216   0.585   0.452  0.1113 -0.3445 -0.3004
 4235SOL    HW113297   5.190   0.493   0.450  0.0769 -0.3656  0.8087
 4235SOL    HW213298   5.184   0.618   0.536 -0.3921  0.8448 -0.9412
 4236SOL     OW13299   0.279   3.567   2.558  0.3021  0.8951 -0.4762
 4236SOL    HW113300   0.317   3.488   2.521  0.4453 -0.7808  2.8488
 4236SOL    HW213301   0.197   3.579   2.510 -0.2846 -1.9723 -0.3694
 4237SOL     OW13302   5.991   3.530   2.395 -0.1461  0.4477 -1.0596
 4237SOL    HW113303   6.070   3.556   2.347 -0.3092  1.4902 -0.8003
 4237SOL    HW213304   5.922   3.527   2.329  0.1139 -0.5091 -1.2941
 4238SOL     OW13305   6.851   0.119   3.500  0.7611 -0.3892  0.0143
 4238SOL    HW113306   6.778   0.058   3.497  0.2632  0.2143 -0.5722
 4238SOL    HW213307   6.897   0.107   3.416  0.0198  0.7835 -0.5849
 4239SOL     OW13308   6.512   4.305   1.740 -0.5220 -0.1198  0.1334
 4239SOL    HW113309   6.494   4.380   1.683 -0.0084  0.0815  0.2338
 4239SOL    HW213310   6.490   4.336   1.828 -0.0256  0.0123  0.2121
 4240SOL     OW13311   6.820   2.424   2.962 -0.0806 -0.4503 -0.2729
 4240SOL    HW113312   6.842   2.391   2.875 -0.2250  0.0022 -0.4820
 4240SOL    HW213313   6.730   2.396   2.976 -1.1394  2.0050 -1.5253
 4241SOL     OW13314   5.739   5.288   2.418 -0.2011 -0.4590  0.0961
 4241SOL    HW113315   5.821   5.304   2.371  0.1293  1.9924  1.3432
 4241SOL    HW213316   5.671   5.322   2.360 -0.1184 -0.5213 -0.0382
 4242SOL     OW13317   0.891   1.808   1.832  0.3486  0.1832  0.3061
 4242SOL    HW113318   0.887   1.902   1.811 -1.5357 -0.5090 -3.3060
 4242SOL    HW213319   0.800   1.783   1.844  0.9259 -1.0235  2.5907
 4243SOL     OW13320   6.089   4.575   1.215 -0.1252 -0.0457  0.2473
 4243SOL    HW113321   6.027   4.642   1.188  0.2060  0.4070  0.5916
 4243SOL    HW213322   6.166   4.589   1.160  0.8768  1.4107  1.9030
 4244SOL     OW13323   5.894   4.427   0.844  0.4400  0.1083  0.4795
 4244SOL    HW113324   5.805   4.395   0.829  0.0595  1.5128 -0.4953
 4244SOL    HW213325   5.891   4.466   0.931 -0.7379  2.6200 -0.5696
 4245SOL     OW13326   4.745   4.858   3.342 -0.2342 -0.1587 -0.5592
 4245SOL    HW113327   4.803   4.783   3.348  2.0632  1.5220 -0.5072
 4245SOL    HW213328   4.700   4.847   3.258 -1.2541 -2.4060  0.2150
 4246SOL     OW13329   6.448   4.298   0.647 -0.3680 -0.2952 -0.1260
 4246SOL    HW113330   6.513   4.228   0.645 -0.5921 -0.5595  0.8875
 4246SOL    HW213331   6.380   4.266   0.707 -0.8311  0.4854 -0.2140
 4247SOL     OW13332   5.714   4.911   2.887 -0.3338 -0.1778 -0.2429
 4247SOL    HW113333   5.761   4.994   2.898 -0.9820 -0.0028  1.6865
 4247SOL    HW213334   5.754   4.870   2.811  0.6179  1.4899 -0.6911
 4248SOL     OW13335   6.320   4.457   2.587  0.3798 -0.1878 -0.4218
 4248SOL    HW113336   6.336   4.386   2.650  3.7372  0.1809 -0.6487
 4248SOL    HW213337   6.263   4.418   2.521 -1.1960 -1.3598  1.4939
 4249SOL     OW13338   6.362   2.604   2.897 -0.7946  1.1098 -0.2533
 4249SOL    HW113339   6.344   2.684   2.848  1.0763  0.5982 -1.9091
 4249SOL    HW213340   6.457   2.603   2.907 -0.9546  0.1493  1.6477
 4250SOL     OW13341   4.349   3.314   0.132  0.0570 -0.0524  0.3635
 4250SOL    HW113342   4.422   3.343   0.077 -1.1598  1.3751 -0.5887
 4250SOL    HW213343   4.297   3.257   0.076  0.3788 -1.0111  1.0153
 4251SOL     OW13344   0.466   5.317   2.430 -0.3992 -0.1113  0.2387
 4251SOL    HW113345   0.488   5.376   2.502  0.2211  1.0058 -0.8359
 4251SOL    HW213346   0.379   5.346   2.401 -0.6410 -0.5485  0.5134
 4252SOL     OW13347   6.095   2.399   2.264 -0.0588  0.5059 -0.4547
 4252SOL    HW113348   6.042   2.369   2.338 -0.2905 -0.6832 -1.0759
 4252SOL    HW213349   6.108   2.320   2.210  0.9317  1.1361 -1.1719
 4253SOL     OW13350   7.092   4.950   0.082  0.0822  0.1925  0.1543
 4253SOL    HW113351   7.059   4.933  -0.006  0.3761  2.1032 -0.3723
 4253SOL    HW213352   7.032   4.904   0.140 -0.6520 -0.3415 -1.0092
 4254SOL     OW13353   5.288   2.816   1.574  0.0017  0.5264 -0.2761
 4254SOL    HW113354   5.256   2.848   1.490 -0.7354  2.5523  0.7064
 4254SOL    HW213355   5.377   2.786   1.557 -0.6684 -0.5915 -2.0618
 4255SOL     OW13356   5.963   0.122   1.346 -0.0132  0.1415 -0.2639
 4255SOL    HW113357   5.892   0.091   1.402  2.4200 -2.6467  1.5865
 4255SOL    HW213358   5.962   0.062   1.271 -0.3924  0.9626 -0.9366
 4256SOL     OW13359   0.532   0.052   1.697 -0.5904 -0.1072 -0.2874
 4256SOL    HW113360   0.507   0.053   1.605 -0.2536 -1.1937 -0.4055
 4256SOL    HW213361   0.531  -0.040   1.722 -0.2832  0.1329  0.6903
 4257SOL     OW13362   0.330   4.708   3.380 -0.0593  0.0949 -0.2354
 4257SOL    HW113363   0.313   4.725   3.287 -0.5208 -0.8614 -0.3332
 4257SOL    HW213364   0.244   4.718   3.421  0.0910  0.2228  0.0494
 4258SOL     OW13365   7.016   4.915   2.966  0.0200 -0.0047  0.1180
 4258SOL    HW113366   7.013   5.009   2.951  0.0389 -0.0893 -0.4466
 4258SOL    HW213367   6.926   4.891   2.987  0.4653  0.5531  3.0274
 4259SOL     OW13368   6.957   0.059   3.271 -0.2985 -0.6271  0.1300
 4259SOL    HW113369   6.910   0.096   3.197  3.4658  1.9997 -1.2720
 4259SOL    HW213370   7.000  -0.019   3.236 -0.5241 -0.8116  0.2661
 4260SOL     OW13371   6.898   5.042   1.093 -0.0380 -0.5299 -0.5983
 4260SOL    HW113372   6.967   5.088   1.140 -1.7175 -0.8811  2.4116
 4260SOL    HW213373   6.887   5.093   1.012 -0.4658  3.3123  1.6236
 4261SOL     OW13374   7.001   5.085   3.389  0.1212 -0.1944 -0.1945
 4261SOL    HW113375   7.030   5.119   3.304 -0.0185 -3.0634 -1.5143
 4261SOL    HW213376   6.946   5.009   3.367 -1.0114 -0.2457  2.4556
 4262SOL     OW13377   5.937   3.082   3.089  0.4641  0.1598  0.9392
 4262SOL    HW113378   6.010   3.028   3.119  0.2526  0.1983  1.5442
 4262SOL    HW213379   5.874   3.079   3.161 -1.1490 -1.6861 -0.4217
 4263SOL     OW13380   5.123   3.189   0.021 -0.1840 -0.1916  0.0543
 4263SOL    HW113381   5.193   3.224   0.075 -0.6393  1.2422 -0.2457
 4263SOL    HW213382   5.167   3.150  -0.054  0.3434 -0.3240  0.4303
 4264SOL     OW13383   6.231   4.500   0.841 -0.6027 -0.5408  0.4094
 4264SOL    HW113384   6.231   4.572   0.904  1.9166  1.1057 -1.3009
 4264SOL    HW213385   6.234   4.543   0.756  1.6758 -2.6018 -0.6703
 4265SOL     OW13386   1.487   0.101   2.637  0.1366 -0.1718  0.3797
 4265SOL    HW113387   1.581   0.121   2.634  0.3250 -0.9429  0.8850
 4265SOL    HW213388   1.448   0.177   2.679  0.5203  0.2007  0.0737
 4266SOL     OW13389   6.776   4.427   1.150 -0.1344  0.1023 -0.1652
 4266SOL    HW113390   6.800   4.519   1.144  0.8990 -0.0121  1.6334
 4266SOL    HW213391   6.834   4.383   1.088 -0.1429  0.5482 -0.5010
 4267SOL     OW13392   5.430   1.287   2.503  0.6816  0.5884  0.5771
 4267SOL    HW113393   5.449   1.253   2.415  0.9307 -2.4178  1.6603
 4267SOL    HW213394   5.348   1.335   2.492 -0.8766 -2.1394 -0.8941
 4268SOL     OW13395   7.131   1.211   1.097 -0.6915 -0.5951  0.0569
 4268SOL    HW113396   7.059   1.271   1.115  0.7117  1.8043 -1.6678
 4268SOL    HW213397   7.197   1.233   1.163  0.0326  0.1872 -0.9034
 4269SOL     OW13398   1.930   3.513   0.624 -0.1959 -0.6785  0.0740
 4269SOL    HW113399   1.993   3.566   0.576  1.3646 -2.2468  0.3079
 4269SOL    HW213400   1.892   3.574   0.688 -1.5277  1.1646 -2.2951
 4270SOL     OW13401   7.235   3.395  -0.010 -0.2493  0.2430 -0.3282
 4270SOL    HW113402   7.325   3.424  -0.027 -0.7002  1.4551 -0.7668
 4270SOL    HW213403   7.180   3.462  -0.052 -1.3576 -1.1936 -1.2612
 4271SOL     OW13404   7.011   0.873  -0.018  0.5714 -0.3351 -0.2940
 4271SOL    HW113405   7.078   0.836  -0.076 -0.1949 -0.6911 -0.9862
 4271SOL    HW213406   6.956   0.797   0.006  0.4412 -0.0602  0.2969
 4272SOL     OW13407   7.261   3.302   2.404  0.1354 -0.4415  0.4281
 4272SOL    HW113408   7.165   3.308   2.410  0.1359 -0.9793  1.0955
 4272SOL    HW213409   7.276   3.245   2.328 -0.1208 -1.4942  1.1393
 4273SOL     OW13410   4.032   4.296   0.230  0.4174  0.1128  0.1961
 4273SOL    HW113411   4.074   4.211   0.224  1.4254  0.6381 -0.4413
 4273SOL    HW213412   4.013   4.307   0.324 -0.9593 -1.3679  0.1257
 4274SOL     OW13413   6.204   3.201   0.927  0.0274 -0.2950 -0.3680
 4274SOL    HW113414   6.241   3.211   0.839  1.9463  0.3741  0.4671
 4274SOL    HW213415   6.138   3.270   0.933  0.2933  0.0301 -1.0815
 4275SOL     OW13416   5.365   4.799   2.444 -0.0963  0.3451  0.0907
 4275SOL    HW113417   5.356   4.784   2.538 -0.7518 -1.2547 -0.2056
 4275SOL    HW213418   5.425   4.874   2.438 -0.0820  0.5109  1.7689
 4276SOL     OW13419   6.115   4.995   0.462 -0.0065 -0.0057  0.2495
 4276SOL    HW113420   6.055   4.922   0.453 -1.5942  1.3008 -0.1526
 4276SOL    HW213421   6.149   5.010   0.374 -0.7475  0.5886  0.0528
 4277SOL     OW13422   6.257   3.654   2.327 -0.3082  0.1874  0.1707
 4277SOL    HW113423   6.296   3.701   2.401  0.4334 -1.3933  0.8124
 4277SOL    HW213424   6.290   3.701   2.250 -0.8147  1.6416  0.8110
 4278SOL     OW13425   6.025   4.315   3.214  0.1810  0.0122 -0.3855
 4278SOL    HW113426   6.006   4.285   3.303 -0.8375  0.4190 -0.4472
 4278SOL    HW213427   5.948   4.289   3.163 -0.5957  2.3610 -0.5183
 4279SOL     OW13428   0.826   4.795   2.646 -0.0838  0.8143 -0.4648
 4279SOL    HW113429   0.843   4.842   2.564  0.0430 -2.1022 -2.2522
 4279SOL    HW213430   0.913   4.768   2.676 -0.1496  1.6836  0.5526
 4280SOL     OW13431   6.304   3.308   1.183  0.3148  0.0800  0.3582
 4280SOL    HW113432   6.214   3.307   1.213  0.1291  1.6626 -0.0572
 4280SOL    HW213433   6.299   3.280   1.091  0.1179  0.9986  0.0783
 4281SOL     OW13434   5.053   5.020   0.599 -0.3497 -0.2459 -0.0374
 4281SOL    HW113435   5.070   5.004   0.692 -1.4370  0.3719  0.2898
 4281SOL    HW213436   5.138   5.006   0.557  0.1577 -0.5805  1.0382
 4282SOL     OW13437   5.754   4.745   2.104 -0.1625  0.1029 -0.2891
 4282SOL    HW113438   5.780   4.837   2.099 -0.3437  0.3069  1.7336
 4282SOL    HW213439   5.767   4.711   2.015  1.3933  1.6714 -0.7050
 4283SOL     OW13440   4.425   3.706   1.826 -0.5561 -0.2760  0.1259
 4283SOL    HW113441   4.419   3.784   1.772 -2.4434 -1.4777 -1.4924
 4283SOL    HW213442   4.513   3.710   1.864  0.0185  1.7120 -1.2947
 4284SOL     OW13443   5.513   2.364   2.993  0.2760 -0.0459  0.4489
 4284SOL    HW113444   5.548   2.416   2.921 -0.1158 -0.4517 -0.0466
 4284SOL    HW213445   5.419   2.376   2.988  0.2374 -0.1690  0.8262
 4285SOL     OW13446   4.519   0.889   2.782  0.5513 -0.4565 -0.4178
 4285SOL    HW113447   4.566   0.954   2.833  0.3446 -0.3961 -0.3012
 4285SOL    HW213448   4.505   0.930   2.697 -2.5466  1.0658  0.6419
 4286SOL     OW13449   5.770   3.537   2.185 -0.9242 -0.5486  0.5114
 4286SOL    HW113450   5.790   3.630   2.174  0.3928 -0.7175  1.2271
 4286SOL    HW213451   5.698   3.535   2.248 -0.7443 -0.0287  0.7397
 4287SOL     OW13452   6.243   0.624  -0.000  0.1101 -0.0982 -0.4445
 4287SOL    HW113453   6.268   0.712   0.031  1.4047 -0.7926  0.6186
 4287SOL    HW213454   6.191   0.588   0.071  0.8255 -0.7128 -0.2151
 4288SOL     OW13455   0.336   3.806   1.763 -0.2665 -0.3154  0.4361
 4288SOL    HW113456   0.320   3.900   1.760  1.8731  0.0886 -2.0537
 4288SOL    HW213457   0.257   3.767   1.726 -1.3631  0.3862  1.8949
 4289SOL     OW13458   6.160   4.411   1.920 -0.0810 -0.3442  0.9285
 4289SOL    HW113459   6.114   4.333   1.951 -1.0053 -0.6144 -0.9477
 4289SOL    HW213460   6.250   4.382   1.909 -0.6192 -1.5387 -0.8121
 4290SOL     OW13461   5.804   5.382   0.826 -0.7311 -0.0434  0.6696
 4290SOL    HW113462   5.795   5.435   0.905 -0.8973  1.6080 -0.3908
 4290SOL    HW213463   5.884   5.414   0.785 -1.4762  0.2717 -0.6096
 4291SOL     OW13464   5.331   0.202   1.424  0.4150  0.6238 -0.1603
 4291SOL    HW113465   5.373   0.288   1.428  1.1616  0.2518  0.2980
 4291SOL    HW213466   5.260   0.213   1.361  0.5403  1.5575 -0.1559
 4292SOL     OW13467   6.171   3.473   3.047  0.1805 -0.0975  0.3184
 4292SOL    HW113468   6.152   3.391   3.001 -0.7598  0.3362 -0.0913
 4292SOL    HW213469   6.103   3.534   3.017  1.9748  1.4242 -0.8796
 4293SOL     OW13470   2.912   4.528   2.949  0.1281 -0.0014  0.0422
 4293SOL    HW113471   3.000   4.504   2.978  1.0560 -0.0239 -2.5599
 4293SOL    HW213472   2.898   4.476   2.870 -1.0819  2.0166 -1.1596
 4294SOL     OW13473   6.384   3.732   1.587 -0.1965 -0.0675  0.0986
 4294SOL    HW113474   6.434   3.794   1.639 -0.1648 -1.1964  1.4667
 4294SOL    HW213475   6.405   3.754   1.496  0.5379  1.2938  0.5788
 4295SOL     OW13476   5.262   0.217   0.492  0.4135 -0.3232 -0.6010
 4295SOL    HW113477   5.201   0.161   0.540 -0.4126  1.1823  0.1881
 4295SOL    HW213478   5.206   0.279   0.446  1.2998  1.8906  1.1214
 4296SOL     OW13479   5.434   4.902   2.914 -0.1886  0.0564 -0.0122
 4296SOL    HW113480   5.440   4.981   2.968  0.4354 -0.6281  0.9480
 4296SOL    HW213481   5.524   4.869   2.910 -0.6274 -1.2972  0.6750
 4297SOL     OW13482   0.104   3.754   0.293 -0.0115  0.9123  0.0372
 4297SOL    HW113483   0.127   3.745   0.385  0.0248  2.1270  0.1618
 4297SOL    HW213484   0.120   3.846   0.272 -0.3037  0.7297 -1.1044
 4298SOL     OW13485   7.332   3.777   1.464 -0.1304  0.0411 -0.2625
 4298SOL    HW113486   7.294   3.818   1.542 -0.4096  0.0914 -0.4232
 4298SOL    HW213487   7.415   3.823   1.452  0.0332 -0.1434  0.1529
 4299SOL     OW13488   5.520   5.330   1.032 -0.2205 -0.1128  0.1179
 4299SOL    HW113489   5.468   5.271   1.086  0.8267 -1.1764  0.0176
 4299SOL    HW213490   5.581   5.372   1.094 -0.0951 -0.1196  0.0006
 4300SOL     OW13491   4.639   0.426   3.205  0.2076  0.1069 -0.1278
 4300SOL    HW113492   4.708   0.430   3.271  0.8341 -0.9789 -0.6982
 4300SOL    HW213493   4.657   0.346   3.156 -0.1392  0.9648 -1.7189
 4301SOL     OW13494   6.793   3.476   0.892 -0.0388 -0.2153  0.2019
 4301SOL    HW113495   6.796   3.437   0.980 -1.0361  0.5338  0.5866
 4301SOL    HW213496   6.719   3.434   0.849  0.3185 -0.4265 -0.2101
 4302SOL     OW13497   6.732   4.388   2.919 -0.2666 -0.3997 -0.2808
 4302SOL    HW113498   6.678   4.354   2.990  0.6583  1.1190  1.2104
 4302SOL    HW213499   6.809   4.424   2.962  0.2910  0.6623 -2.0525
 4303SOL     OW13500   6.889   2.642   1.523  0.4603 -0.3006 -0.5493
 4303SOL    HW113501   6.824   2.625   1.591  1.5842  0.5005  0.7772
 4303SOL    HW213502   6.906   2.736   1.529  2.0785 -0.5671 -0.5382
 4304SOL     OW13503   6.991   1.921   2.020  0.1741 -0.3946 -0.1116
 4304SOL    HW113504   6.913   1.937   2.072  0.8184 -0.2160  0.8308
 4304SOL    HW213505   7.016   1.831   2.042  1.2653  0.1603  1.0291
 4305SOL     OW13506   0.152   3.964   0.592  0.1912 -0.3757 -0.3093
 4305SOL    HW113507   0.170   3.870   0.587  0.6818 -0.2803 -0.4652
 4305SOL    HW213508   0.135   3.981   0.684  0.5721 -0.5409 -0.2048
 4306SOL     OW13509   3.810   4.280   2.202 -0.3526  0.3649  0.2125
 4306SOL    HW113510   3.833   4.209   2.141 -1.4573  1.5937 -1.7551
 4306SOL    HW213511   3.715   4.273   2.211 -0.3803  1.1387  0.5751
 4307SOL     OW13512   3.247   3.916   0.607  0.7386 -0.2283 -0.5201
 4307SOL    HW113513   3.163   3.876   0.584  0.8701 -1.4614  0.9789
 4307SOL    HW213514   3.312   3.866   0.558  0.6697  0.2756 -1.1405
 4308SOL     OW13515   5.638   5.060   1.809 -0.1651 -0.0266  0.5725
 4308SOL    HW113516   5.582   4.987   1.783 -0.9416  0.3524  1.1507
 4308SOL    HW213517   5.595   5.138   1.773  0.5790  0.1765  0.0821
 4309SOL     OW13518   6.103   0.748   2.788 -0.3146  0.1935 -0.3696
 4309SOL    HW113519   6.144   0.790   2.864  0.3864  1.2920 -1.3264
 4309SOL    HW213520   6.173   0.742   2.724 -1.0079 -0.3336 -1.0887
 4310SOL     OW13521   3.303   3.821   2.520 -0.2842 -0.2414  0.3766
 4310SOL    HW113522   3.254   3.780   2.449  0.2477  0.9520 -0.7301
 4310SOL    HW213523   3.286   3.766   2.596 -1.6048 -1.0503 -0.4630
 4311SOL     OW13524   6.574   0.084   0.306 -0.0189 -0.4541 -0.7833
 4311SOL    HW113525   6.643   0.147   0.327 -0.2403 -0.2375 -0.6944
 4311SOL    HW213526   6.536   0.116   0.224 -1.6088  0.8101  0.3858
 4312SOL     OW13527   6.504   0.093   2.145 -0.3006  0.1134 -0.8649
 4312SOL    HW113528   6.505   0.111   2.051 -0.8039  1.5799 -0.6134
 4312SOL    HW213529   6.567   0.023   2.157  0.6882  0.7523 -2.1348
 4313SOL     OW13530   6.154   2.662   0.484  0.6798 -0.2480  0.2269
 4313SOL    HW113531   6.068   2.695   0.457  0.4257  0.5541  1.9454
 4313SOL    HW213532   6.146   2.567   0.473 -0.7450 -0.2732  1.1845
 4314SOL     OW13533   6.043   0.580   0.905 -0.2480  0.2724 -0.4897
 4314SOL    HW113534   5.978   0.552   0.969 -2.4639 -0.2909 -2.7972
 4314SOL    HW213535   6.072   0.499   0.863  1.2331  0.6180 -0.1999
 4315SOL     OW13536   5.335   4.037   2.152 -0.0678 -0.2952 -0.4499
 4315SOL    HW113537   5.336   3.971   2.222  0.9307 -0.3888 -0.5373
 4315SOL    HW213538   5.339   3.987   2.071  1.4883 -0.1467 -0.5044
 4316SOL     OW13539   0.131   0.628   1.227  0.4204  0.7400 -0.1892
 4316SOL    HW113540   0.108   0.539   1.253  1.0317  0.8081  0.6171
 4316SOL    HW213541   0.098   0.683   1.298 -0.0302  1.1661 -0.7258
 4317SOL     OW13542   5.123   4.886   3.490  0.3689 -0.1227 -0.2432
 4317SOL    HW113543   5.135   4.810   3.548  0.4358 -1.4780 -1.9516
 4317SOL    HW213544   5.069   4.946   3.541  0.7699 -1.0644  1.3792
 4318SOL     OW13545   5.568   0.800   1.564  0.0448 -0.0376  0.1890
 4318SOL    HW113546   5.655   0.805   1.605  0.4976 -0.0092 -0.7454
 4318SOL    HW213547   5.568   0.871   1.500 -0.5030 -0.3149 -0.1216
 4319SOL     OW13548   6.223   4.225   0.389 -0.1590 -0.1299  0.0406
 4319SOL    HW113549   6.308   4.263   0.367 -0.5990  1.0145  0.2496
 4319SOL    HW213550   6.164   4.258   0.322 -0.9294  1.1030  1.2740
 4320SOL     OW13551   0.432   0.892   3.312  0.3475  0.4258 -0.1628
 4320SOL    HW113552   0.374   0.815   3.308 -0.3579  0.9102  0.3836
 4320SOL    HW213553   0.404   0.937   3.392  0.6322  1.3525 -0.5867
 4321SOL     OW13554   4.512   2.851   0.558 -0.4227  0.3314  1.0801
 4321SOL    HW113555   4.514   2.864   0.653  1.8554  0.2725  1.0822
 4321SOL    HW213556   4.455   2.921   0.526  1.1895  2.2919  2.2548
 4322SOL     OW13557   5.902   0.011   2.834 -0.3398 -0.2009  0.2618
 4322SOL    HW113558   5.882   0.047   2.920  1.0661 -0.6354  0.8102
 4322SOL    HW213559   5.968   0.070   2.797 -1.8765  0.7333 -1.1189
 4323SOL     OW13560   7.384   4.924   1.566  0.0970  0.0096 -0.4546
 4323SOL    HW113561   7.413   4.901   1.654  3.4774 -0.3622 -1.5240
 4323SOL    HW213562   7.333   4.849   1.537 -1.3142  0.2588  1.2172
 4324SOL     OW13563   7.251   0.215   3.370 -0.2877 -0.3557  0.5701
 4324SOL    HW113564   7.177   0.226   3.310  0.1472 -0.6671 -0.0328
 4324SOL    HW213565   7.231   0.273   3.443 -2.0003 -1.7607  1.2794
 4325SOL     OW13566   5.678   0.012   2.691  0.6348 -0.5106  0.1311
 4325SOL    HW113567   5.733   0.018   2.612 -0.5182  0.6003 -0.6282
 4325SOL    HW213568   5.740   0.012   2.764  1.7149 -1.2363 -0.7617
 4326SOL     OW13569   6.883   4.970   1.369 -0.2384 -0.1141  0.4808
 4326SOL    HW113570   6.941   4.896   1.350  0.0324  0.1910  0.1142
 4326SOL    HW213571   6.857   5.003   1.283 -2.4106 -1.3544  0.5606
 4327SOL     OW13572   5.150   1.647   0.490 -0.1895  0.0036 -0.0843
 4327SOL    HW113573   5.089   1.573   0.498  0.1594 -0.2241  0.5013
 4327SOL    HW213574   5.237   1.609   0.499  0.1329  0.1362 -2.2529
 4328SOL     OW13575   6.740   3.959   0.218  0.0162  0.4634  0.3914
 4328SOL    HW113576   6.652   3.985   0.246 -0.4543 -0.5002 -0.1337
 4328SOL    HW213577   6.726   3.912   0.136  0.6852 -2.0461  1.5986
 4329SOL     OW13578   6.633   3.117   3.102 -0.0785  0.7190  0.1051
 4329SOL    HW113579   6.573   3.055   3.144 -0.7694  1.8240  0.8183
 4329SOL    HW213580   6.579   3.193   3.082  1.0556  1.7197  0.6868
 4330SOL     OW13581   6.508   3.482   2.855 -0.1020  0.1854  0.8034
 4330SOL    HW113582   6.424   3.502   2.815  0.4211 -0.1477 -0.4969
 4330SOL    HW213583   6.573   3.509   2.790  0.8003  0.2949  1.7213
 4331SOL     OW13584   6.904   4.251   2.589  0.4583 -0.1707  0.5908
 4331SOL    HW113585   6.862   4.323   2.542 -0.0997 -0.2970  0.8772
 4331SOL    HW213586   6.997   4.259   2.568  0.0638 -1.2743 -1.9696
 4332SOL     OW13587   6.643   3.484   0.514  0.2958  0.7440  0.1375
 4332SOL    HW113588   6.590   3.415   0.474  0.5895  0.4660  0.2228
 4332SOL    HW213589   6.603   3.565   0.483 -0.3356  0.5428  0.4065
 4333SOL     OW13590   6.350   4.698   0.051 -0.0463 -0.3130 -0.5299
 4333SOL    HW113591   6.267   4.654   0.029  1.1288 -2.1149 -1.6403
 4333SOL    HW213592   6.369   4.669   0.140 -0.7389  0.3455 -0.1578
 4334SOL     OW13593   0.689   1.102   0.596 -0.4847 -0.2781  0.0994
 4334SOL    HW113594   0.606   1.111   0.548 -0.2489  2.9306  0.1055
 4334SOL    HW213595   0.691   1.177   0.655  2.6338  0.0271 -0.2277
 4335SOL     OW13596   5.993   4.949   2.077  0.0339  0.4249  0.2606
 4335SOL    HW113597   5.987   4.940   2.172 -2.1001 -1.2798  0.0366
 4335SOL    HW213598   6.049   4.876   2.049 -0.0952  0.3674  0.1476
 4336SOL     OW13599   5.372   5.341   1.976  0.0842 -0.1260  0.0152
 4336SOL    HW113600   5.281   5.334   2.006  0.0245 -0.1475 -0.1715
 4336SOL    HW213601   5.415   5.393   2.044  0.0160 -0.4203  0.2848
 4337SOL     OW13602   6.326   4.691   1.012  0.6414  0.2252 -0.4196
 4337SOL    HW113603   6.345   4.764   1.071 -2.8213 -0.1838  1.4510
 4337SOL    HW213604   6.392   4.699   0.943  2.1907  3.3676  1.1944
 4338SOL     OW13605   4.271   4.949   3.117 -0.2085 -0.0124  0.0545
 4338SOL    HW113606   4.354   4.965   3.162 -0.8434  0.8820  0.9417
 4338SOL    HW213607   4.235   5.037   3.102 -0.8883 -0.3862 -0.5338
 4339SOL     OW13608   6.789   2.678   0.859 -0.7839  0.0643 -0.7070
 4339SOL    HW113609   6.828   2.604   0.813 -0.5391 -0.9507  1.0307
 4339SOL    HW213610   6.788   2.749   0.794  1.0685 -0.7770 -1.7496
 4340SOL     OW13611   5.699   0.042   3.468  0.2160 -0.9104  0.5578
 4340SOL    HW113612   5.646   0.104   3.419  2.0838 -0.1033 -0.5233
 4340SOL    HW213613   5.660   0.041   3.556 -1.4243 -0.2144 -0.1311
 4341SOL     OW13614   1.052   3.860   1.516  0.5807  0.1641 -0.6092
 4341SOL    HW113615   1.084   3.770   1.526  0.2235 -0.3513 -3.3067
 4341SOL    HW213616   0.983   3.868   1.583  2.4855 -0.5278  1.5883
 4342SOL     OW13617   5.847   5.246   1.945 -0.4055 -0.3500  0.0086
 4342SOL    HW113618   5.804   5.185   1.885 -1.0432 -0.5311  0.6509
 4342SOL    HW213619   5.939   5.246   1.916 -0.9908  0.9098 -2.1099
 4343SOL     OW13620   0.693   4.809   0.754 -0.2049  0.5022 -0.0017
 4343SOL    HW113621   0.724   4.793   0.664  0.7473  0.1577  0.3721
 4343SOL    HW213622   0.598   4.818   0.745 -0.0456  1.2587 -1.1499
 4344SOL     OW13623   6.589   3.908   3.166  0.4305  0.1941  0.4209
 4344SOL    HW113624   6.681   3.920   3.191  1.1803  0.0477 -2.0286
 4344SOL    HW213625   6.587   3.822   3.124 -0.7970  0.2684  0.3158
 4345SOL     OW13626   5.978   3.114   3.484 -0.4955 -0.7762  0.1708
 4345SOL    HW113627   5.992   3.020   3.484 -2.5314 -1.1170  0.1741
 4345SOL    HW213628   5.895   3.127   3.438 -1.1526  0.8496  1.6651
 4346SOL     OW13629   5.199   3.657   0.203  0.0590 -0.3013 -0.0374
 4346SOL    HW113630   5.224   3.619   0.119  0.8711 -0.0082  0.0642
 4346SOL    HW213631   5.103   3.650   0.205 -0.1826  1.4142 -1.8546
 4347SOL     OW13632   7.022   4.205   1.026  0.3857 -0.3238  0.3767
 4347SOL    HW113633   6.986   4.134   0.972 -0.0347  0.3655 -0.2712
 4347SOL    HW213634   7.117   4.200   1.012  0.1637  1.8216 -3.1004
 4348SOL     OW13635   0.933   1.478   2.459  0.2937  0.0091  0.2049
 4348SOL    HW113636   0.939   1.538   2.533 -1.6277  1.5306 -0.7836
 4348SOL    HW213637   0.841   1.451   2.458  0.5710 -0.9828 -0.8933
 4349SOL     OW13638   7.130   4.007   2.905 -0.6229 -0.0984  0.1127
 4349SOL    HW113639   7.163   4.012   2.995  1.0741 -1.0168 -0.3986
 4349SOL    HW213640   7.038   4.031   2.911 -0.1935  1.3390  1.8632
 4350SOL     OW13641   0.324   5.262   0.482  0.4995 -0.0938  0.0014
 4350SOL    HW113642   0.368   5.326   0.426  1.4597 -1.1885 -0.5334
 4350SOL    HW213643   0.246   5.236   0.433 -0.2133  1.0651  0.4791
 4351SOL     OW13644   7.272   4.668   2.275 -0.7404 -0.3254  0.0783
 4351SOL    HW113645   7.368   4.675   2.279 -0.8230  0.4634  2.1154
 4351SOL    HW213646   7.247   4.727   2.204  0.2660 -0.4516 -0.4045
 4352SOL     OW13647   7.302   0.436   0.045 -0.1079  0.1568  0.5050
 4352SOL    HW113648   7.308   0.372   0.116  1.0123  0.6950  0.9277
 4352SOL    HW213649   7.351   0.512   0.078 -1.8085  1.4537  0.2504
 4353SOL     OW13650   5.703   3.642   3.377  0.2023  0.3021  0.0529
 4353SOL    HW113651   5.653   3.711   3.422 -0.7713 -0.3925  0.0625
 4353SOL    HW213652   5.648   3.618   3.302 -0.6763 -2.1478  1.3761
 4354SOL     OW13653   5.132   2.780   2.264  0.5054 -0.3152  0.1581
 4354SOL    HW113654   5.224   2.755   2.258  0.5064 -0.0222 -1.4006
 4354SOL    HW213655   5.125   2.859   2.211 -0.1102  1.2999  2.4984
 4355SOL     OW13656   6.351   0.174   0.131  0.1124  0.5886 -0.1800
 4355SOL    HW113657   6.383   0.255   0.093  1.0346 -0.3640 -1.5550
 4355SOL    HW213658   6.256   0.182   0.129  0.1947  2.0397  0.6805
 4356SOL     OW13659   5.110   3.714   3.285 -0.3453  0.6673  0.0352
 4356SOL    HW113660   5.024   3.754   3.299  0.2687  1.9302  0.3433
 4356SOL    HW213661   5.164   3.785   3.251  1.4176  0.7664  2.7272
 4357SOL     OW13662   6.809   0.059   2.986 -0.1478  0.0375  0.4473
 4357SOL    HW113663   6.881   0.002   2.960  0.6823  0.9861  0.6165
 4357SOL    HW213664   6.730   0.007   2.970  0.5670 -0.9937  0.2068
 4358SOL     OW13665   4.865   5.114   3.328  0.5238  0.1411  0.1955
 4358SOL    HW113666   4.907   5.111   3.242  0.2638  1.0400  0.0345
 4358SOL    HW213667   4.836   5.024   3.343  1.9447 -0.3704  0.0436
 4359SOL     OW13668   0.322   0.297   2.777 -0.1928  0.5429  0.4543
 4359SOL    HW113669   0.294   0.359   2.710  1.3939  0.9955  0.1655
 4359SOL    HW213670   0.388   0.344   2.828  1.9404 -1.1931 -0.4989
 4360SOL     OW13671   5.258   3.400   3.226  0.2927 -0.8093 -0.5788
 4360SOL    HW113672   5.305   3.323   3.193  2.4871  0.1816  0.0445
 4360SOL    HW213673   5.320   3.442   3.285 -1.5616  0.4190  0.5727
 4361SOL     OW13674   6.352   0.180   1.472 -1.1918 -0.2348 -0.1672
 4361SOL    HW113675   6.447   0.195   1.468 -0.9115 -0.7155  2.6738
 4361SOL    HW213676   6.319   0.217   1.390  1.5881 -1.5385 -2.0335
 4362SOL     OW13677   0.124   4.071   0.851  0.1194 -0.1816  0.3111
 4362SOL    HW113678   0.043   4.021   0.858  0.7628 -1.1049  1.4797
 4362SOL    HW213679   0.158   4.076   0.941  0.7406  1.2530  0.0327
 4363SOL     OW13680   6.988   4.516   3.000 -0.0023 -0.1444 -0.0194
 4363SOL    HW113681   7.049   4.586   2.978 -0.8614  1.0001  1.1112
 4363SOL    HW213682   7.036   4.436   2.982  1.3454  0.7322 -0.4539
 4364SOL     OW13683   4.171   0.094   0.527  0.4484  0.2997  0.1948
 4364SOL    HW113684   4.221   0.050   0.457  3.2904  0.8035  1.7504
 4364SOL    HW213685   4.147   0.023   0.587  1.5909  0.3189  0.7093
 4365SOL     OW13686   5.078   4.478   2.671  0.3155  0.5312 -0.4768
 4365SOL    HW113687   5.061   4.572   2.673 -0.3689  0.4131 -0.4524
 4365SOL    HW213688   5.167   4.469   2.705 -0.2994  1.0283  1.4374
 4366SOL     OW13689   5.630   4.322   0.806  0.3172  0.0161  0.0626
 4366SOL    HW113690   5.626   4.230   0.778  0.7030  0.0694 -0.1725
 4366SOL    HW213691   5.585   4.370   0.737 -0.4701 -0.0602  0.5077
 4367SOL     OW13692   6.835   4.423   3.467 -0.0557 -0.1311 -0.3742
 4367SOL    HW113693   6.850   4.446   3.558 -2.3570  2.0641 -0.4071
 4367SOL    HW213694   6.750   4.378   3.467  0.5216 -1.2820 -1.3173
 4368SOL     OW13695   0.623   0.921   3.119 -0.0154 -1.1459 -0.2960
 4368SOL    HW113696   0.683   0.978   3.169 -0.0554  0.3836 -1.8696
 4368SOL    HW213697   0.542   0.921   3.170  0.8351 -2.0359  1.1094
 4369SOL     OW13698   7.395   5.163   1.788 -0.3694  0.0711 -0.6578
 4369SOL    HW113699   7.351   5.166   1.703 -0.6747  0.9191 -0.4750
 4369SOL    HW213700   7.403   5.070   1.808 -0.3941 -0.1298 -1.5622
 4370SOL     OW13701   4.302   0.249   2.766  0.0384  0.2492  0.4091
 4370SOL    HW113702   4.356   0.189   2.817 -0.3171 -0.8859 -0.4861
 4370SOL    HW213703   4.326   0.336   2.796 -1.0339 -0.3807  3.3802
 4371SOL     OW13704   7.308   2.583   0.259  0.6840 -0.1612 -0.7037
 4371SOL    HW113705   7.271   2.670   0.270  0.1749 -0.4483 -0.0732
 4371SOL    HW213706   7.260   2.528   0.321  0.3990 -1.0670 -1.6893
 4372SOL     OW13707   6.931   0.380   1.268 -0.1402 -0.4936  0.9240
 4372SOL    HW113708   6.873   0.388   1.343 -1.1509  1.6800 -0.0236
 4372SOL    HW213709   6.879   0.334   1.202 -0.2428  0.0676  0.6106
 4373SOL     OW13710   6.199   0.183   3.412  0.0088  0.3036 -0.5533
 4373SOL    HW113711   6.255   0.177   3.334  0.2452  0.5921 -0.4102
 4373SOL    HW213712   6.130   0.245   3.387 -0.6536 -0.5756 -0.9672
 4374SOL     OW13713   1.202   0.728   1.372 -0.8717 -0.1881  0.1992
 4374SOL    HW113714   1.283   0.773   1.395 -0.9193  0.9339 -1.6776
 4374SOL    HW213715   1.213   0.703   1.281 -2.7870  0.3500 -0.2237
 4375SOL     OW13716   6.894   4.415   2.186  0.3137  0.3245  0.7401
 4375SOL    HW113717   6.826   4.437   2.249  0.1451  0.9282  0.3497
 4375SOL    HW213718   6.975   4.416   2.237  0.2190  1.1391  0.8929
 4376SOL     OW13719   4.245   2.471   0.239 -0.1890  0.0911  0.1223
 4376SOL    HW113720   4.305   2.510   0.176 -1.0854  0.9920 -0.2064
 4376SOL    HW213721   4.213   2.545   0.291  0.1822 -0.5697  1.3534
 4377SOL     OW13722   5.204   0.745   2.768 -0.2364  0.3061 -0.0787
 4377SOL    HW113723   5.222   0.704   2.852  0.3323 -2.2053 -1.3233
 4377SOL    HW213724   5.216   0.838   2.783 -1.4733  0.0804  2.9226
 4378SOL     OW13725   3.272   4.596   0.133 -0.3213 -0.3428  0.1781
 4378SOL    HW113726   3.361   4.565   0.113 -0.1486  0.5587 -0.5302
 4378SOL    HW213727   3.273   4.688   0.106 -1.2331 -0.1056  0.9287
 4379SOL     OW13728   5.932   3.637   3.499 -0.2395 -0.2518  0.1976
 4379SOL    HW113729   5.957   3.725   3.526 -0.6526 -0.3597  0.9540
 4379SOL    HW213730   5.858   3.649   3.440 -0.1368 -0.0808  0.1043
 4380SOL     OW13731   0.032   1.213   0.744 -0.3378 -0.7249  0.3417
 4380SOL    HW113732   0.067   1.125   0.756 -1.2110 -0.9459  1.4359
 4380SOL    HW213733   0.031   1.251   0.831  0.4288  0.5541 -0.1703
 4381SOL     OW13734   6.111   3.936   3.031 -0.2076 -0.4733  0.1221
 4381SOL    HW113735   6.189   3.982   3.063  1.0819  0.0382 -3.2628
 4381SOL    HW213736   6.143   3.849   3.009 -1.0174 -0.8028  0.2414
 4382SOL     OW13737   0.156   0.418   2.304  0.2445  0.3032 -0.1894
 4382SOL    HW113738   0.126   0.351   2.242  1.9763  0.6731 -1.5080
 4382SOL    HW213739   0.129   0.386   2.390 -0.7092 -1.0855 -0.9669
 4383SOL     OW13740   6.320   4.052   2.440  0.6782 -0.1666  0.0827
 4383SOL    HW113741   6.396   4.100   2.473  0.9424 -1.1868  1.0175
 4383SOL    HW213742   6.249   4.076   2.499  0.3571  0.4621 -0.5416
 4384SOL     OW13743   0.178   4.499   0.451 -0.2987  0.2597 -0.2767
 4384SOL    HW113744   0.167   4.404   0.456 -0.5514  0.2816 -0.3866
 4384SOL    HW213745   0.155   4.531   0.538 -0.8835  0.2808 -0.4323
 4385SOL     OW13746   5.420   0.613   1.114 -0.0243  0.5589  0.0571
 4385SOL    HW113747   5.486   0.682   1.103  0.8408 -0.2797 -0.0600
 4385SOL    HW213748   5.470   0.534   1.131 -0.9068 -0.4969 -1.9657
 4386SOL     OW13749   5.795   4.255   3.074  0.1013 -0.0512 -0.0638
 4386SOL    HW113750   5.761   4.299   2.996 -0.1618  1.1324  0.6861
 4386SOL    HW213751   5.719   4.248   3.132  1.0613  2.9542  1.7961
 4387SOL     OW13752   6.752   4.518   1.426 -0.9994 -0.2009 -0.1163
 4387SOL    HW113753   6.682   4.453   1.430 -1.2125 -0.1050 -1.8191
 4387SOL    HW213754   6.797   4.501   1.344 -0.8896  1.6291 -0.4889
 4388SOL     OW13755   5.615   3.283   2.296 -0.0852  0.5745  0.0152
 4388SOL    HW113756   5.681   3.220   2.269  0.5636  0.8306  0.9307
 4388SOL    HW213757   5.562   3.299   2.218 -1.2045 -2.1866  0.1040
 4389SOL     OW13758   3.686   1.734   3.414  0.5303 -0.4743  0.5615
 4389SOL    HW113759   3.715   1.813   3.461  0.0967 -0.8788  1.5424
 4389SOL    HW213760   3.758   1.673   3.424  1.0970 -0.0423 -0.6643
 4390SOL     OW13761   5.542   0.679   3.243  0.1858  0.3074  0.0350
 4390SOL    HW113762   5.570   0.668   3.152  1.5606  2.0166  0.1814
 4390SOL    HW213763   5.617   0.648   3.295  0.0295  0.7578  0.5367
 4391SOL     OW13764   6.288   3.503   2.028  1.0473 -0.5056 -0.6881
 4391SOL    HW113765   6.356   3.554   2.071  0.4735 -1.0631  0.9701
 4391SOL    HW213766   6.213   3.562   2.022  1.3175 -0.2359 -1.5121
 4392SOL     OW13767   6.108   3.236   2.920 -0.4732 -0.3157 -0.6876
 4392SOL    HW113768   6.055   3.177   2.973  1.0130  0.0053  1.2980
 4392SOL    HW213769   6.173   3.179   2.879  0.0177 -0.2859  0.0166
 4393SOL     OW13770   1.143   5.020   2.585  0.8712  0.6765  0.2561
 4393SOL    HW113771   1.119   5.034   2.677  0.6535  1.7255  0.0510
 4393SOL    HW213772   1.062   5.035   2.536  0.8482 -0.4376 -0.0754
 4394SOL     OW13773   0.667   1.077   2.882 -0.0325  0.2330  0.4734
 4394SOL    HW113774   0.628   1.034   2.959 -0.2957  0.7617  0.6452
 4394SOL    HW213775   0.650   1.017   2.810  0.5924 -0.4693  0.9012
 4395SOL     OW13776   7.148   0.082   0.677  0.2931  0.3215  0.0801
 4395SOL    HW113777   7.110   0.054   0.594  0.3500 -0.3274  0.2691
 4395SOL    HW213778   7.231   0.123   0.653  0.2869  0.1761 -0.1847
 4396SOL     OW13779   0.649   3.337   3.270  0.2684  0.1252 -0.1301
 4396SOL    HW113780   0.574   3.386   3.303 -0.5460 -1.9406  1.3289
 4396SOL    HW213781   0.610   3.267   3.217  1.2182 -0.3800 -0.1767
 4397SOL     OW13782   5.406   4.675   0.727  0.2110  0.2975 -0.1504
 4397SOL    HW113783   5.482   4.627   0.692 -0.7106 -1.3363 -0.0098
 4397SOL    HW213784   5.391   4.637   0.813 -0.6026  0.7896 -0.0652
 4398SOL     OW13785   4.915   4.646   3.364 -0.0163 -0.1178 -0.0320
 4398SOL    HW113786   4.973   4.588   3.412  1.4486  0.3150 -1.1884
 4398SOL    HW213787   4.974   4.702   3.314 -1.4309  0.0061 -1.6552
 4399SOL     OW13788   0.073   0.012   2.608  0.0286  0.1786 -0.0673
 4399SOL    HW113789   0.081   0.105   2.629  0.3397  0.4795 -1.4624
 4399SOL    HW213790   0.103   0.005   2.518 -0.6555 -1.1746 -0.2063
 4400SOL     OW13791   0.256   4.824   0.495 -0.4779  0.2347  0.1372
 4400SOL    HW113792   0.220   4.762   0.431 -1.2100  1.0444 -0.2445
 4400SOL    HW213793   0.185   4.885   0.512 -0.2896  0.0619  1.7146
 4401SOL     OW13794   6.422   3.517  -0.010  0.1111  0.1480 -0.3294
 4401SOL    HW113795   6.327   3.525  -0.000  0.1588 -0.8469  1.5057
 4401SOL    HW213796   6.445   3.581  -0.077 -2.0376 -0.7193 -2.0232
 4402SOL     OW13797   6.612   4.763   2.225 -0.2898 -0.3342  0.0317
 4402SOL    HW113798   6.616   4.773   2.320 -0.5597  3.3921 -0.1908
 4402SOL    HW213799   6.540   4.820   2.198  0.1399 -0.8615 -2.4626
 4403SOL     OW13800   4.732   0.190   2.220  0.3251 -0.3780  0.5042
 4403SOL    HW113801   4.824   0.181   2.244  0.1742  2.3486  2.4203
 4403SOL    HW213802   4.688   0.118   2.266  1.2995 -0.9699  0.5433
 4404SOL     OW13803   6.548   3.729   0.383  0.2131 -0.0263 -0.4624
 4404SOL    HW113804   6.473   3.737   0.324 -0.1120  0.1185 -0.0364
 4404SOL    HW213805   6.527   3.788   0.455  0.7219 -0.0168 -0.3211
 4405SOL     OW13806   0.145   4.434   2.334  0.3868  0.0231  0.0509
 4405SOL    HW113807   0.187   4.512   2.370 -0.5513  0.4134  0.3536
 4405SOL    HW213808   0.101   4.464   2.255  0.6546 -0.3683 -0.2509
 4406SOL     OW13809   6.736   3.101   2.852 -0.3014  0.4805 -0.1244
 4406SOL    HW113810   6.669   3.061   2.796  1.2428 -0.3038 -1.5027
 4406SOL    HW213811   6.702   3.090   2.941 -0.8220 -2.3010 -0.5694
 4407SOL     OW13812   6.118   4.177   0.628 -0.2141 -0.5020 -0.0408
 4407SOL    HW113813   6.132   4.082   0.637  3.0475 -0.0380  1.0198
 4407SOL    HW213814   6.158   4.199   0.544  1.2591  0.2131  0.8044
 4408SOL     OW13815   4.614   3.824   0.367 -0.3908 -0.4592  0.0725
 4408SOL    HW113816   4.621   3.744   0.315 -0.0584 -0.3334 -0.0810
 4408SOL    HW213817   4.697   3.870   0.352 -0.8311  0.2291 -0.3655
 4409SOL     OW13818   0.719   2.446   2.148 -0.0617 -0.7388 -0.2022
 4409SOL    HW113819   0.784   2.506   2.183 -1.1455 -0.4505  1.4191
 4409SOL    HW213820   0.757   2.359   2.161  0.3994 -0.5359 -0.1669
 4410SOL     OW13821   3.891   4.201   1.918  0.2809  0.4371  0.3482
 4410SOL    HW113822   3.930   4.282   1.887  1.6002 -0.4130 -0.2819
 4410SOL    HW213823   3.941   4.179   1.997  0.7680 -0.3778 -0.1669
 4411SOL     OW13824   6.709   0.595   2.172 -0.1000 -0.1032 -0.3788
 4411SOL    HW113825   6.703   0.550   2.088  0.6578  0.1742 -0.5887
 4411SOL    HW213826   6.789   0.648   2.165 -1.0272  1.3656 -0.1975
 4412SOL     OW13827   6.797   1.020   0.699 -0.4593  0.3545 -0.3911
 4412SOL    HW113828   6.808   1.000   0.792  0.9428  1.4852 -0.2638
 4412SOL    HW213829   6.886   1.040   0.669 -1.0008  0.7460 -1.7893
 4413SOL     OW13830   4.924   5.257   2.655  0.0607  0.0392  0.1986
 4413SOL    HW113831   4.922   5.351   2.671  0.0357 -0.2266  2.0621
 4413SOL    HW213832   4.834   5.228   2.671  0.3946 -0.4877  1.2476
 4414SOL     OW13833   4.820   0.263   1.606 -0.0319 -0.6343  0.0963
 4414SOL    HW113834   4.882   0.292   1.673 -0.4227 -1.4980  0.8448
 4414SOL    HW213835   4.744   0.320   1.619  0.1062 -0.4336  0.0268
 4415SOL     OW13836   1.803   3.606   2.870  0.1044 -0.1321 -0.1500
 4415SOL    HW113837   1.764   3.524   2.838  0.2076  0.5802 -2.2719
 4415SOL    HW213838   1.761   3.621   2.955 -1.2635 -1.4568 -0.5355
 4416SOL     OW13839   7.408   0.189   2.308  0.8668 -0.5337 -0.6322
 4416SOL    HW113840   7.413   0.175   2.213  1.6855 -0.9634 -0.5427
 4416SOL    HW213841   7.316   0.175   2.330  0.5043  0.4157 -1.4829
 4417SOL     OW13842   5.572   4.339   2.293 -0.6886 -0.2433  0.1490
 4417SOL    HW113843   5.500   4.400   2.306  0.0512  0.8808 -0.7966
 4417SOL    HW213844   5.638   4.365   2.357 -0.5047 -0.2732 -0.0260
 4418SOL     OW13845   5.947   5.234   2.204  0.5057  0.0446  0.6643
 4418SOL    HW113846   6.026   5.185   2.181  0.8215  0.0261  1.7465
 4418SOL    HW213847   5.891   5.226   2.127  1.6263  0.2108 -0.1974
 4419SOL     OW13848   5.565   0.105   0.646 -0.1814 -0.1982 -0.7585
 4419SOL    HW113849   5.499   0.063   0.701  0.2054 -1.3042 -1.1242
 4419SOL    HW213850   5.648   0.082   0.686  0.0276  0.7976 -0.5751
 4420SOL     OW13851   6.444   0.429   3.072  0.2693  0.0402 -0.2974
 4420SOL    HW113852   6.436   0.337   3.096 -0.2832  0.3599  0.7795
 4420SOL    HW213853   6.365   0.447   3.021  0.3173 -0.0317 -0.4012
 4421SOL     OW13854   4.975   5.345   3.420 -0.0438 -0.2257  0.2803
 4421SOL    HW113855   4.940   5.265   3.381 -0.0582  0.3671 -0.9790
 4421SOL    HW213856   5.063   5.320   3.449  0.7492 -0.2313 -1.9220
 4422SOL     OW13857   6.599   3.299   0.805 -0.2347 -0.4528 -0.0399
 4422SOL    HW113858   6.512   3.293   0.767 -0.6745  1.4490  0.5794
 4422SOL    HW213859   6.590   3.262   0.893  0.1992 -2.5231 -0.8152
 4423SOL     OW13860   5.974   3.674   1.450 -0.2997 -0.5972 -0.1353
 4423SOL    HW113861   6.026   3.629   1.516 -0.4386  0.5817  0.8095
 4423SOL    HW213862   6.038   3.723   1.398 -0.1599 -1.7538 -1.0938
 4424SOL     OW13863   7.012   5.274   2.902 -0.4291  0.4387  0.0182
 4424SOL    HW113864   6.972   5.213   2.840 -0.7592  1.0681 -0.3975
 4424SOL    HW213865   7.083   5.315   2.852 -0.2858  0.4846  0.2588
 4425SOL     OW13866   3.960   3.920   2.995  0.0389  0.1991 -0.2810
 4425SOL    HW113867   3.964   3.904   3.090 -0.7073  1.5214 -0.0044
 4425SOL    HW213868   3.904   3.997   2.986  0.8986  0.6911 -1.7442
 4426SOL     OW13869   6.871   5.228   0.897 -0.4204  0.1198  0.0878
 4426SOL    HW113870   6.825   5.300   0.940 -1.4387  0.1777 -1.0439
 4426SOL    HW213871   6.808   5.193   0.834  1.2341  0.6152 -1.9642
 4427SOL     OW13872   5.556   4.087   2.461 -0.0584 -0.4126  0.0229
 4427SOL    HW113873   5.509   4.119   2.539  0.8630 -0.3973  0.5896
 4427SOL    HW213874   5.542   4.155   2.395  0.7576  0.5464  0.7982
 4428SOL     OW13875   5.720   4.499   2.934  0.1526 -0.2961  0.1093
 4428SOL    HW113876   5.773   4.458   2.865 -0.2169  0.0865 -0.4118
 4428SOL    HW213877   5.630   4.476   2.910  0.0195 -0.1096  0.4345
 4429SOL     OW13878   6.147   0.835   3.155  0.3748 -0.0241  0.6015
 4429SOL    HW113879   6.192   0.892   3.094 -0.9051 -0.6438 -0.9986
 4429SOL    HW213880   6.127   0.891   3.230  1.6489  0.8552  0.3191
 4430SOL     OW13881   0.267   4.614   0.224 -0.2518 -0.4128 -0.4795
 4430SOL    HW113882   0.182   4.616   0.180 -0.1846 -1.8397 -0.7351
 4430SOL    HW213883   0.248   4.578   0.311  0.0825 -0.7256 -0.5328
 4431SOL     OW13884   6.698   3.818   2.028 -0.7288  0.5556  0.7101
 4431SOL    HW113885   6.714   3.838   2.120  0.1384 -2.4115  1.3307
 4431SOL    HW213886   6.620   3.762   2.028 -0.2487 -0.1620 -0.2126
 4432SOL     OW13887   1.483   1.302   2.630 -0.0311  1.1081 -0.4712
 4432SOL    HW113888   1.523   1.218   2.650  0.6158  1.3440 -0.7554
 4432SOL    HW213889   1.533   1.365   2.683 -1.1343  1.2067  0.4982
 4433SOL     OW13890   7.242   5.348   2.790 -0.0933  0.1103  0.1579
 4433SOL    HW113891   7.305   5.346   2.718  1.2043  1.0004  1.2191
 4433SOL    HW213892   7.292   5.380   2.865 -1.4568 -0.6053  1.4200
 4434SOL     OW13893   6.438   4.510   1.547  0.2985 -0.4232  0.0986
 4434SOL    HW113894   6.375   4.581   1.537  0.5033 -0.1470  0.7154
 4434SOL    HW213895   6.445   4.471   1.460  0.3973  0.4938 -0.3065
 4435SOL     OW13896   5.609   3.760   2.329 -0.2568  0.0372  0.1478
 4435SOL    HW113897   5.690   3.777   2.281  0.6424  1.7809  2.1012
 4435SOL    HW213898   5.635   3.765   2.421 -2.1540 -1.7616  0.8677
 4436SOL     OW13899   6.019   3.944   0.947  0.0006 -0.0887 -0.6341
 4436SOL    HW113900   5.973   4.019   0.984  1.8874  0.5305  0.6211
 4436SOL    HW213901   6.057   3.977   0.866  0.5757  0.2466 -0.2361
 4437SOL     OW13902   0.866   4.376   2.382  0.1285 -0.5894 -0.5179
 4437SOL    HW113903   0.898   4.294   2.419  2.5104 -0.8631 -2.8856
 4437SOL    HW213904   0.774   4.380   2.407  0.9572 -1.8473  3.2217
 4438SOL     OW13905   5.062   5.006   2.360  0.6132 -0.1566 -0.5686
 4438SOL    HW113906   5.112   4.948   2.301  1.4201  0.9633 -1.0405
 4438SOL    HW213907   4.977   5.015   2.317  1.6857  1.8816 -2.4986
 4439SOL     OW13908   7.058   1.053   0.611 -0.6780  0.6255  0.8024
 4439SOL    HW113909   7.091   1.139   0.636 -1.6496  1.8654 -1.8244
 4439SOL    HW213910   7.066   1.051   0.515  0.7735 -2.8574  0.8572
 4440SOL     OW13911   7.053   0.071   0.947  0.3609  0.4430  0.5433
 4440SOL    HW113912   7.081   0.032   0.864 -0.9582  1.3190 -0.3531
 4440SOL    HW213913   7.092   0.158   0.946  0.9809  0.1765  1.2187
 4441SOL     OW13914   4.453   3.805   2.271 -0.0352 -0.0187 -0.1497
 4441SOL    HW113915   4.450   3.711   2.289 -2.0350  0.1172  0.5015
 4441SOL    HW213916   4.515   3.840   2.335 -0.0993 -0.7762  0.3342
 4442SOL     OW13917   6.842   3.970   3.332  0.7057  0.9913 -0.3277
 4442SOL    HW113918   6.755   3.968   3.373  0.6826  0.0538 -0.3963
 4442SOL    HW213919   6.890   4.035   3.383  0.5656  0.1155  1.0041
 4443SOL     OW13920   5.991   0.015   3.124 -0.4722 -0.1737 -0.5961
 4443SOL    HW113921   6.005   0.108   3.140 -0.6455 -0.2687  0.1627
 4443SOL    HW213922   5.947  -0.017   3.203  0.1000 -1.0160 -0.5978
 4444SOL     OW13923   7.099   5.258   1.631 -0.4267 -0.1251 -0.0351
 4444SOL    HW113924   7.122   5.351   1.636  1.2133 -0.5641  1.7188
 4444SOL    HW213925   7.031   5.246   1.697  1.1604 -0.5873  1.6000
 4445SOL     OW13926   6.539   4.809   2.487 -0.1522  0.2124  0.5172
 4445SOL    HW113927   6.554   4.740   2.552  0.8214  1.2983  1.5112
 4445SOL    HW213928   6.461   4.855   2.519 -2.5234 -2.0024 -1.6208
 4446SOL     OW13929   0.330   2.320   1.904 -0.2791  0.4206 -0.0264
 4446SOL    HW113930   0.256   2.280   1.856 -0.7331 -0.6860  1.5199
 4446SOL    HW213931   0.330   2.275   1.988  2.0932  0.5134  0.0657
 4447SOL     OW13932   0.907   5.252   0.969 -0.3492 -0.0224  0.0190
 4447SOL    HW113933   0.838   5.277   0.907 -1.1326 -3.5150 -0.7039
 4447SOL    HW213934   0.860   5.213   1.042  0.7956 -0.9385  0.2827
 4448SOL     OW13935   6.145   4.527   0.013 -0.1581 -1.2225  0.6704
 4448SOL    HW113936   6.082   4.533  -0.059  0.9021 -0.2796 -0.1919
 4448SOL    HW213937   6.090   4.520   0.091 -1.3300 -1.9739 -0.1808
 4449SOL     OW13938   1.300   4.052   2.807  0.8413  0.0186 -0.3589
 4449SOL    HW113939   1.237   4.008   2.749  0.7417 -1.7855  1.0349
 4449SOL    HW213940   1.257   4.133   2.832 -0.7819 -0.9695  0.1961
 4450SOL     OW13941   6.408   0.329   2.495 -0.0648 -0.0788  0.3043
 4450SOL    HW113942   6.441   0.312   2.584  0.3145  0.3920  0.2567
 4450SOL    HW213943   6.327   0.377   2.508  0.7815  1.4007  0.3941
 4451SOL     OW13944   6.897   3.469   2.986 -0.1956  0.2091 -0.1833
 4451SOL    HW113945   6.871   3.414   2.912 -1.1522  0.8664 -0.3567
 4451SOL    HW213946   6.980   3.508   2.959  1.6288 -2.6274  0.7407
 4452SOL     OW13947   4.392   1.497   2.727 -0.0902 -0.0748 -0.1849
 4452SOL    HW113948   4.404   1.427   2.663 -0.7324 -0.1851 -0.1912
 4452SOL    HW213949   4.298   1.498   2.745 -0.0907  0.7824 -0.1800
   7.42819   5.40011   3.51279
