Curcumin on GO nanoflake, explicit water
13949
    1GOFLA   C1    1   2.764   1.390   1.184 -0.8566  0.0703  0.0933
    1GOFLA   C2    2   2.651   1.604   1.219  0.1761  0.4837 -0.4516
    1GOFLA   C3    3   2.535   1.813   1.205 -0.3327 -0.0139  0.4697
    1GOFLA   C4    4   2.414   2.023   1.164  0.0857 -0.3134 -0.7502
    1GOFLA   C5    5   2.275   2.232   1.186  0.3127 -0.5481 -0.2608
    1GOFLA   C6    6   2.150   2.444   1.206  0.3182 -0.1315 -0.2140
    1GOFLA   C7    7   2.028   2.657   1.195  0.3717 -0.7814  0.4743
    1GOFLA   C8    8   1.905   2.868   1.163  0.3596  0.1410 -0.1047
    1GOFLA   C9    9   1.789   3.086   1.168  0.6528 -0.3708 -0.6056
    1GOFLA  C10   10   1.657   3.302   1.170 -0.7558 -0.2575 -0.2447
    1GOFLA  C11   11   1.539   3.511   1.179  0.3589 -0.0303 -0.6267
    1GOFLA  C12   12   1.418   3.728   1.167  0.2586 -0.2591  0.6008
    1GOFLA  C13   13   1.297   3.935   1.148  0.6572  0.6632  0.2402
    1GOFLA  C14   14   2.889   1.311   1.181 -0.1745 -1.0044  0.0963
    1GOFLA  C15   15   3.021   1.374   1.187  0.1065  0.4318 -0.4156
    1GOFLA  C16   16   2.773   1.530   1.202  0.6871  0.7466  0.1200
    1GOFLA  C17   17   2.893   1.598   1.186 -0.7035 -0.3095 -0.2684
    1GOFLA  C18   18   2.654   1.746   1.215 -0.0765 -0.2119 -0.2790
    1GOFLA  C19   19   2.775   1.817   1.228 -0.1047 -0.0692  0.1213
    1GOFLA  C20   20   2.538   1.953   1.191  0.1280 -0.3371  0.0338
    1GOFLA  C21   21   2.657   2.031   1.203 -0.0651  0.0402  0.6619
    1GOFLA  C22   22   2.406   2.165   1.189  0.3859 -0.2497 -0.0804
    1GOFLA  C23   23   2.528   2.238   1.191 -0.1515  0.2745 -0.1571
    1GOFLA  C24   24   2.274   2.373   1.213 -0.2526  0.0350 -0.6215
    1GOFLA  C25   25   2.400   2.447   1.207  1.1400  0.1666 -0.0586
    1GOFLA  C26   26   2.152   2.584   1.205  0.3137 -0.3129 -0.1843
    1GOFLA  C27   27   2.273   2.662   1.207 -0.9963 -0.2144 -0.1468
    1GOFLA  C28   28   2.028   2.802   1.182  0.0861  0.1928 -0.1968
    1GOFLA  C29   29   2.150   2.877   1.185 -0.0859  0.2243  0.2303
    1GOFLA  C30   30   1.908   3.014   1.160  0.0006  0.4858 -0.5831
    1GOFLA  C31   31   2.032   3.087   1.166 -0.1186 -0.1342  0.2817
    1GOFLA  C32   32   1.783   3.229   1.164  0.4245 -0.0187  0.0970
    1GOFLA  C33   33   1.905   3.299   1.163  0.2856  0.8262 -0.2749
    1GOFLA  C34   34   1.662   3.441   1.192 -0.6215 -0.4744  0.7144
    1GOFLA  C35   35   1.786   3.507   1.192 -0.2718  0.1221  0.3475
    1GOFLA  C36   36   1.540   3.656   1.177 -0.1661 -0.1664 -0.3537
    1GOFLA  C37   37   1.664   3.722   1.175  0.3209 -0.1060  0.0465
    1GOFLA  C38   38   1.418   3.869   1.150 -0.2803  0.0726  0.6735
    1GOFLA  C39   39   1.533   3.939   1.191 -0.4792  0.3743 -0.1023
    1GOFLA  C40   40   1.289   4.080   1.176 -0.0770 -0.2178 -0.0341
    1GOFLA  C41   41   1.411   4.152   1.179 -0.1607 -0.3114  0.7061
    1GOFLA  C42   42   3.146   1.301   1.185 -0.4838  0.4454 -0.4311
    1GOFLA  C43   43   3.267   1.373   1.196 -0.3462 -0.1992 -0.0074
    1GOFLA  C44   44   3.018   1.520   1.185  0.4644  0.2686 -0.3129
    1GOFLA  C45   45   3.143   1.590   1.189  0.3381 -0.6989  0.4153
    1GOFLA  C46   46   2.901   1.741   1.205  0.5218  0.6481 -0.6826
    1GOFLA  C47   47   3.023   1.811   1.185 -0.2410 -0.0642  0.5641
    1GOFLA  C48   48   2.777   1.958   1.219 -0.1939 -0.2445 -0.3109
    1GOFLA  C49   49   2.904   2.029   1.209  0.6115 -0.6590 -0.4119
    1GOFLA  C50   50   2.654   2.171   1.185  0.2784 -0.5208 -0.3208
    1GOFLA  C51   51   2.780   2.242   1.180 -0.9464  0.1697 -0.2434
    1GOFLA  C52   52   2.523   2.377   1.203 -0.2261 -0.7194  0.0441
    1GOFLA  C53   53   2.652   2.453   1.199  0.0518  0.0416 -0.3979
    1GOFLA  C54   54   2.400   2.593   1.212  0.6648 -0.1107  0.0848
    1GOFLA  C55   55   2.526   2.667   1.215  0.3250  0.0269 -0.0069
    1GOFLA  C56   56   2.273   2.809   1.194 -0.0804  0.7208 -0.2864
    1GOFLA  C57   57   2.399   2.877   1.192  0.1472 -0.1104  0.3084
    1GOFLA  C58   58   2.148   3.015   1.172 -0.2635  0.2913 -0.6861
    1GOFLA  C59   59   2.274   3.088   1.189  0.4857 -0.6465  0.3465
    1GOFLA  C60   60   2.033   3.230   1.162  0.3850  0.5210 -0.4856
    1GOFLA  C61   61   2.153   3.298   1.175 -0.4812  0.5933  0.1470
    1GOFLA  C62   62   1.909   3.435   1.168 -0.2071 -0.6514 -0.0469
    1GOFLA  C63   63   2.034   3.510   1.172 -0.1171 -0.1077  0.8401
    1GOFLA  C64   64   1.785   3.650   1.196 -0.1990 -0.6173  0.0276
    1GOFLA  C65   65   1.908   3.723   1.206  0.3400  0.4081  0.5766
    1GOFLA  C66   66   1.657   3.865   1.188  0.4171  0.0745  0.3569
    1GOFLA  C67   67   1.777   3.935   1.211 -0.3102 -0.5270  0.9566
    1GOFLA  C68   68   1.532   4.081   1.197 -0.7415  0.1676  0.7126
    1GOFLA  C69   69   1.658   4.153   1.204  0.0182  0.0184  0.0589
    1GOFLA  C70   70   3.390   1.304   1.189  0.5469  0.3547  0.6737
    1GOFLA  C71   71   3.509   1.378   1.185  0.5809  0.0989 -0.3975
    1GOFLA  C72   72   3.264   1.518   1.204  0.1288  0.0433 -0.2190
    1GOFLA  C73   73   3.386   1.594   1.202 -0.1556 -0.5703 -0.2590
    1GOFLA  C74   74   3.146   1.737   1.190 -0.1420  0.0068  0.3422
    1GOFLA  C75   75   3.264   1.812   1.218 -0.3899  0.7918  0.4176
    1GOFLA  C76   76   3.026   1.954   1.190 -0.2268  0.7801 -0.1767
    1GOFLA  C77   77   3.145   2.022   1.188 -0.1391  0.0375 -0.2217
    1GOFLA  C78   78   2.901   2.169   1.210 -0.0738 -0.3628 -0.3657
    1GOFLA  C79   79   3.023   2.236   1.197  0.2233  0.1291 -0.0169
    1GOFLA  C80   80   2.776   2.381   1.189 -0.7837  0.2627  0.6500
    1GOFLA  C81   81   2.901   2.454   1.189 -0.1014  0.8578 -0.5484
    1GOFLA  C82   82   2.646   2.598   1.204 -0.0617 -0.0849 -0.1245
    1GOFLA  C83   83   2.768   2.668   1.211 -0.2883  0.7761  0.7209
    1GOFLA  C84   84   2.524   2.809   1.201  0.2080  0.8533  0.3703
    1GOFLA  C85   85   2.642   2.880   1.202 -0.0758  0.6421  0.9920
    1GOFLA  C86   86   2.399   3.021   1.193 -0.3626 -0.4452 -0.0406
    1GOFLA  C87   87   2.521   3.093   1.184  0.4414 -0.2978  0.5061
    1GOFLA  C88   88   2.273   3.229   1.183 -0.4460 -0.7736 -0.6305
    1GOFLA  C89   89   2.396   3.302   1.181 -0.1314 -0.2033  0.2149
    1GOFLA  C90   90   2.158   3.439   1.188  0.6400  0.3816 -0.3315
    1GOFLA  C91   91   2.280   3.511   1.206  0.6853  0.1841 -0.5902
    1GOFLA  C92   92   2.030   3.649   1.193  0.3940 -0.3057 -0.2799
    1GOFLA  C93   93   2.151   3.720   1.186 -0.6789  0.3840  0.0660
    1GOFLA  C94   94   1.907   3.864   1.213 -0.3162  0.9259 -0.6127
    1GOFLA  C95   95   2.029   3.939   1.198 -0.3322 -0.0181 -0.6799
    1GOFLA  C96   96   1.782   4.079   1.214  0.6147 -0.0664  0.0532
    1GOFLA  C97   97   1.907   4.150   1.206  1.0815 -0.4499 -0.0591
    1GOFLA  C98   98   3.632   1.308   1.197 -0.3118  0.3141  0.6721
    1GOFLA  C99   99   3.756   1.382   1.188 -0.3512  0.3644 -0.1942
    1GOFLA C100  100   3.510   1.520   1.187 -0.0872 -0.7502 -0.2989
    1GOFLA C101  101   3.630   1.592   1.187 -0.2138 -0.7188 -0.3401
    1GOFLA C102  102   3.383   1.740   1.206 -0.6231  0.0408  0.4042
    1GOFLA C103  103   3.509   1.813   1.215  0.3826 -0.3381 -0.0488
    1GOFLA C104  104   3.262   1.955   1.232 -0.0460  0.7625 -0.1255
    1GOFLA C105  105   3.385   2.027   1.226 -0.3050 -1.0597  0.4938
    1GOFLA C106  106   3.148   2.165   1.179  0.0616  0.1066  0.2317
    1GOFLA C107  107   3.272   2.241   1.170  0.6384  0.3231  0.6134
    1GOFLA C108  108   3.026   2.381   1.193  0.2304  0.6324  0.6221
    1GOFLA C109  109   3.146   2.455   1.194  0.9185  0.0450 -0.3305
    1GOFLA C110  110   2.896   2.594   1.214  0.7003  0.0242  0.1616
    1GOFLA C111  111   3.014   2.670   1.211  0.6495  0.1294 -0.2614
    1GOFLA C112  112   2.767   2.813   1.200  0.4282  0.4881  0.2379
    1GOFLA C113  113   2.890   2.885   1.190 -0.0587  0.3831  0.0955
    1GOFLA C114  114   2.647   3.022   1.191 -0.3242  0.4423  0.2529
    1GOFLA C115  115   2.772   3.093   1.191  0.6329 -0.1935 -0.1059
    1GOFLA C116  116   2.522   3.236   1.188 -0.3286  0.4378  0.2823
    1GOFLA C117  117   2.645   3.304   1.190 -0.0223 -0.0060 -0.5062
    1GOFLA C118  118   2.401   3.444   1.193  0.0209  0.3982 -0.9711
    1GOFLA C119  119   2.523   3.515   1.187  0.0644 -0.7814  0.1106
    1GOFLA C120  120   2.276   3.650   1.216 -0.1249 -0.3056 -0.6930
    1GOFLA C121  121   2.396   3.724   1.211  0.2647 -0.1360 -0.2072
    1GOFLA C122  122   2.157   3.865   1.189  0.3205  0.5435  0.3331
    1GOFLA C123  123   2.280   3.945   1.211 -0.1329 -0.2330 -0.4240
    1GOFLA C124  124   2.031   4.082   1.205 -0.1316  0.6362 -0.0836
    1GOFLA C125  125   2.157   4.149   1.211  0.8668 -0.2310 -0.1969
    1GOFLA C126  126   3.879   1.316   1.198  0.0555  0.0599 -0.4348
    1GOFLA C127  127   3.996   1.382   1.235  0.4172  0.0747  0.1278
    1GOFLA C128  128   3.754   1.522   1.188  0.1918  0.3052 -0.2811
    1GOFLA C129  129   3.872   1.592   1.230  0.2962 -0.0087  0.7918
    1GOFLA C130  130   3.628   1.733   1.213  0.0572 -0.6586  0.1690
    1GOFLA C131  131   3.750   1.800   1.190 -0.9700  0.5465 -0.1085
    1GOFLA C132  132   3.507   1.956   1.217 -1.1261  0.0225 -0.2883
    1GOFLA C133  133   3.633   2.023   1.199 -0.1079  0.7051 -0.5859
    1GOFLA C134  134   3.394   2.164   1.185 -0.2906 -0.7316 -0.5441
    1GOFLA C135  135   3.512   2.233   1.174 -0.8299 -0.0318 -0.3624
    1GOFLA C136  136   3.266   2.381   1.187 -0.1616 -0.3208  0.3496
    1GOFLA C137  137   3.386   2.449   1.180  0.6743 -0.8536  0.1046
    1GOFLA C138  138   3.136   2.597   1.204 -1.0138 -0.0869 -0.2753
    1GOFLA C139  139   3.261   2.664   1.188  0.6173  0.3260 -0.4434
    1GOFLA C140  140   3.011   2.816   1.194 -0.2454 -0.7686 -0.4325
    1GOFLA C141  141   3.137   2.882   1.189 -0.1023  0.2404  0.2660
    1GOFLA C142  142   2.894   3.023   1.197 -0.0377 -0.0124 -0.1445
    1GOFLA C143  143   3.017   3.096   1.176 -0.6398 -0.9852 -0.1506
    1GOFLA C144  144   2.774   3.236   1.193  0.6347 -0.5682 -0.4307
    1GOFLA C145  145   2.899   3.311   1.172  0.5328 -0.1857 -0.3787
    1GOFLA C146  146   2.646   3.448   1.199 -0.6861  0.1402  0.4879
    1GOFLA C147  147   2.771   3.516   1.189  0.4731  0.1866 -0.6218
    1GOFLA C148  148   2.520   3.657   1.186  0.3174 -0.2002 -0.1762
    1GOFLA C149  149   2.641   3.729   1.209  0.4494  0.2652  0.1579
    1GOFLA C150  150   2.403   3.866   1.222  0.1611 -1.0594  0.4081
    1GOFLA C151  151   2.521   3.935   1.190 -0.3438  0.0963  0.0728
    1GOFLA C152  152   2.282   4.088   1.220 -0.5483  0.0264 -0.2106
    1GOFLA C153  153   2.407   4.155   1.192 -0.4732  0.0836 -0.4647
    1GOFLA C154  154   4.116   1.302   1.220 -0.3484  0.4683  0.3936
    1GOFLA C155  155   4.241   1.370   1.215 -0.0852 -0.6680 -0.3804
    1GOFLA C156  156   3.995   1.523   1.256 -0.5061 -0.1377  0.4832
    1GOFLA C157  157   4.121   1.589   1.230  0.1402 -0.3211 -0.4885
    1GOFLA C158  158   3.876   1.730   1.200  0.3283 -0.2229 -0.3538
    1GOFLA C159  159   3.998   1.802   1.200  0.4199 -0.0719 -0.1245
    1GOFLA C160  160   3.754   1.946   1.206  0.1955  0.0156  0.7665
    1GOFLA C161  161   3.876   2.016   1.216  0.2192 -0.2660 -0.2741
    1GOFLA C162  162   3.632   2.166   1.191  0.9042  0.5343 -0.0550
    1GOFLA C163  163   3.752   2.231   1.187  0.1199  0.3443  0.0938
    1GOFLA C164  164   3.510   2.376   1.184  0.4862  0.2429 -0.3348
    1GOFLA C165  165   3.631   2.445   1.213 -0.8025 -0.1904 -0.3799
    1GOFLA C166  166   3.383   2.593   1.183 -0.0663  0.3765 -0.5721
    1GOFLA C167  167   3.503   2.667   1.215  0.2036  0.1322  0.0249
    1GOFLA C168  168   3.263   2.808   1.192  0.3250 -0.6059  0.0320
    1GOFLA C169  169   3.381   2.883   1.199 -0.1173 -0.2005  0.3284
    1GOFLA C170  170   3.140   3.022   1.172  0.1421 -0.3200 -0.0813
    1GOFLA C171  171   3.265   3.092   1.168  0.2642 -0.0392  0.5929
    1GOFLA C172  172   3.017   3.240   1.178  0.0132 -0.1244  0.4602
    1GOFLA C173  173   3.138   3.307   1.163 -0.6286 -0.0468  0.6330
    1GOFLA C174  174   2.897   3.452   1.187 -0.3810  0.1142  0.0109
    1GOFLA C175  175   3.026   3.518   1.203  0.4645  1.2206 -0.2987
    1GOFLA C176  176   2.766   3.658   1.205 -0.6194 -0.3310  0.4482
    1GOFLA C177  177   2.894   3.730   1.214  0.4181 -0.3332  0.3561
    1GOFLA C178  178   2.643   3.868   1.197 -0.4208  0.2490 -0.3470
    1GOFLA C179  179   2.769   3.944   1.197  0.2778 -0.5576  0.9321
    1GOFLA C180  180   2.528   4.081   1.190  0.4870 -0.1814  0.4879
    1GOFLA C181  181   2.649   4.148   1.215 -0.3403 -0.1362  0.2093
    1GOFLA C182  182   4.362   1.306   1.187 -0.3133 -0.1370 -0.2423
    1GOFLA C183  183   4.488   1.382   1.190  0.7879 -0.0624  0.1248
    1GOFLA C184  184   4.246   1.514   1.250  0.2600 -0.1212  0.4955
    1GOFLA C185  185   4.368   1.588   1.210  0.6116  0.0182 -0.3474
    1GOFLA C186  186   4.121   1.731   1.201 -0.2906  0.6055 -0.5864
    1GOFLA C187  187   4.245   1.805   1.201  0.0184 -0.0609  0.4909
    1GOFLA C188  188   4.004   1.941   1.211 -0.6090  0.1229  0.1291
    1GOFLA C189  189   4.121   2.011   1.161 -0.1425 -0.0451  0.4834
    1GOFLA C190  190   3.872   2.162   1.212 -0.1257  0.6569  0.1045
    1GOFLA C191  191   3.996   2.231   1.193 -0.1916 -0.4189  0.3935
    1GOFLA C192  192   3.753   2.372   1.197 -0.2827 -0.1501 -0.1599
    1GOFLA C193  193   3.875   2.447   1.203  0.2282 -0.4349 -0.6567
    1GOFLA C194  194   3.621   2.588   1.227 -0.5961  0.1670  0.1025
    1GOFLA C195  195   3.747   2.655   1.234  0.7279 -0.5388  0.1824
    1GOFLA C196  196   3.498   2.809   1.219  0.6348  0.2598  0.4407
    1GOFLA C197  197   3.625   2.877   1.212  0.0713  1.0495 -0.4913
    1GOFLA C198  198   3.383   3.024   1.204 -0.7708  0.1804  0.4658
    1GOFLA C199  199   3.509   3.089   1.221  0.3322 -0.9555  0.2360
    1GOFLA C200  200   3.261   3.234   1.181  0.1225 -0.2221  0.6361
    1GOFLA C201  201   3.386   3.299   1.224  0.7743 -0.0510 -0.0973
    1GOFLA C202  202   3.146   3.444   1.190  0.1333 -1.1868 -0.1476
    1GOFLA C203  203   3.270   3.514   1.204 -0.0429  0.9679 -0.0245
    1GOFLA C204  204   3.016   3.659   1.209 -0.2438 -0.4337  0.5547
    1GOFLA C205  205   3.142   3.731   1.202  0.7605 -0.2379  0.4922
    1GOFLA C206  206   2.891   3.871   1.199 -0.6311 -0.4638  0.2836
    1GOFLA C207  207   3.014   3.946   1.180 -0.6653  0.4865 -0.3185
    1GOFLA C208  208   2.772   4.088   1.193  0.5026 -0.3070  0.5702
    1GOFLA C209  209   2.890   4.156   1.210 -0.1543  0.2669 -0.5725
    1GOFLA C210  210   4.615   1.316   1.178  0.2163 -0.2455 -0.8235
    1GOFLA C211  211   4.738   1.386   1.177  0.1353  0.2442  0.7354
    1GOFLA C212  212   4.489   1.523   1.190 -0.4902 -0.5969 -0.1270
    1GOFLA C213  213   4.611   1.596   1.203  0.4022 -0.5447  0.1630
    1GOFLA C214  214   4.366   1.731   1.214 -0.1933  0.1640  0.4854
    1GOFLA C215  215   4.490   1.800   1.197  0.6960 -0.1692 -0.1358
    1GOFLA C216  216   4.245   1.947   1.182  0.0490 -0.4929 -0.0566
    1GOFLA C217  217   4.367   2.015   1.166 -0.6069 -0.4736  0.3041
    1GOFLA C218  218   4.118   2.156   1.172 -0.1223 -0.0114  0.7090
    1GOFLA C219  219   4.240   2.229   1.175  0.0918  0.4792  0.0376
    1GOFLA C220  220   3.996   2.376   1.206  0.1319 -0.3533  0.3240
    1GOFLA C221  221   4.121   2.442   1.226  0.1125  0.0143  0.3058
    1GOFLA C222  222   3.870   2.585   1.216  0.3555 -0.0547  0.3071
    1GOFLA C223  223   3.990   2.651   1.249 -0.0352 -0.0655  0.8640
    1GOFLA C224  224   3.749   2.798   1.220 -0.0562 -0.1241 -0.2586
    1GOFLA C225  225   3.871   2.872   1.223 -0.4254 -0.5933  0.3253
    1GOFLA C226  226   3.632   3.017   1.205  0.3313  0.5561 -0.1284
    1GOFLA C227  227   3.758   3.076   1.227 -0.0884 -0.0984 -0.1020
    1GOFLA C228  228   3.506   3.228   1.195  0.2301 -0.0621  0.1615
    1GOFLA C229  229   3.631   3.296   1.204 -0.2272  0.4462 -0.0311
    1GOFLA C230  230   3.392   3.446   1.244  0.1967  0.8297 -0.0522
    1GOFLA C231  231   3.510   3.514   1.200  0.3754 -0.9134  0.3093
    1GOFLA C232  232   3.263   3.660   1.195 -0.4293  0.4521 -0.6133
    1GOFLA C233  233   3.385   3.734   1.198 -0.1895 -0.1227  0.0198
    1GOFLA C234  234   3.137   3.875   1.206 -0.1765  0.1537 -0.4636
    1GOFLA C235  235   3.259   3.947   1.210  0.0990  0.3428 -0.2924
    1GOFLA C236  236   3.015   4.086   1.188 -0.5047  0.0936  0.2240
    1GOFLA C237  237   3.135   4.160   1.201 -0.4446  0.7469  0.4850
    1GOFLA C238  238   4.860   1.313   1.142 -0.3050  0.3879  0.2373
    1GOFLA C239  239   4.980   1.383   1.170  0.8910  1.0557 -0.4383
    1GOFLA C240  240   4.739   1.529   1.188 -0.3940 -0.4251 -0.3712
    1GOFLA C241  241   4.857   1.600   1.155  0.1760 -0.6194 -0.6140
    1GOFLA C242  242   4.615   1.735   1.179  0.0439 -0.3984 -0.3088
    1GOFLA C243  243   4.733   1.808   1.186  0.2282  0.1016  0.0946
    1GOFLA C244  244   4.486   1.945   1.197  0.5284 -0.0528  0.2525
    1GOFLA C245  245   4.613   2.017   1.201  0.1042  0.1323 -0.1170
    1GOFLA C246  246   4.361   2.159   1.167 -0.1304 -0.8042  0.3175
    1GOFLA C247  247   4.482   2.230   1.174 -0.1533  0.3816  0.3000
    1GOFLA C248  248   4.240   2.370   1.194  0.1896  0.4116  0.0222
    1GOFLA C249  249   4.367   2.442   1.166  0.2974 -0.3981 -0.7218
    1GOFLA C250  250   4.116   2.587   1.234 -1.0940 -0.0366 -0.1593
    1GOFLA C251  251   4.242   2.661   1.217 -0.1564  0.0257  0.2689
    1GOFLA C252  252   3.989   2.794   1.251 -0.9018 -0.7334 -0.2777
    1GOFLA C253  253   4.117   2.874   1.240  0.2772  0.4733  1.0126
    1GOFLA C254  254   3.878   3.010   1.252 -0.6194 -0.2672 -0.1057
    1GOFLA C255  255   3.998   3.082   1.220  0.0140 -0.0152  0.1831
    1GOFLA C256  256   3.755   3.224   1.232 -0.1966 -0.2019  0.9320
    1GOFLA C257  257   3.878   3.295   1.238  0.3264  0.2583  0.2445
    1GOFLA C258  258   3.629   3.440   1.178  0.1952  0.5988 -0.2181
    1GOFLA C259  259   3.753   3.512   1.205  0.4311  0.3183  0.2337
    1GOFLA C260  260   3.504   3.657   1.194  0.2397 -0.4667 -0.9042
    1GOFLA C261  261   3.629   3.730   1.199  0.3936  0.4618  0.3923
    1GOFLA C262  262   3.387   3.874   1.209  0.0992 -1.1361 -0.5180
    1GOFLA C263  263   3.507   3.940   1.185  0.7379  0.0340 -0.3216
    1GOFLA C264  264   3.262   4.090   1.209 -0.1923 -0.9169 -0.2702
    1GOFLA C265  265   3.387   4.161   1.189 -0.1523  1.1352 -0.0878
    1GOFLA C266  266   5.100   1.305   1.195 -0.3189 -1.0127 -0.1009
    1GOFLA C267  267   5.223   1.376   1.217  0.9084  0.5936 -0.2847
    1GOFLA C268  268   4.979   1.522   1.178 -0.2884 -0.3351 -0.2180
    1GOFLA C269  269   5.106   1.595   1.193 -0.4022 -0.8431 -0.7941
    1GOFLA C270  270   4.857   1.739   1.190 -0.1694  0.2390  0.0693
    1GOFLA C271  271   4.981   1.811   1.196 -0.4700  0.2160 -0.2511
    1GOFLA C272  272   4.737   1.950   1.206  0.2394  0.6726 -0.3981
    1GOFLA C273  273   4.861   2.017   1.192  0.3085  0.4597 -0.7069
    1GOFLA C274  274   4.607   2.160   1.185 -0.0118  0.2481  0.0654
    1GOFLA C275  275   4.733   2.230   1.208 -0.4076  0.1370 -0.1148
    1GOFLA C276  276   4.489   2.371   1.184  0.4581 -0.2061  0.8825
    1GOFLA C277  277   4.619   2.440   1.204  0.2589 -0.0522  0.0534
    1GOFLA C278  278   4.362   2.586   1.179 -0.7353 -0.7586  0.0595
    1GOFLA C279  279   4.490   2.655   1.174 -0.3103 -0.0494  0.1814
    1GOFLA C280  280   4.241   2.801   1.221  0.1181 -0.4365 -0.3046
    1GOFLA C281  281   4.361   2.872   1.186  0.8594  0.3285  0.7137
    1GOFLA C282  282   4.124   3.019   1.233 -0.2243  0.2864  0.5113
    1GOFLA C283  283   4.241   3.085   1.188 -0.4364  0.0150  0.5623
    1GOFLA C284  284   3.996   3.224   1.205 -0.0369 -0.3495 -0.0545
    1GOFLA C285  285   4.115   3.297   1.185  0.1776 -0.0783 -0.0469
    1GOFLA C286  286   3.877   3.435   1.217 -0.2328 -0.3065 -0.0246
    1GOFLA C287  287   3.997   3.506   1.223 -0.4504 -0.3598  0.0056
    1GOFLA C288  288   3.751   3.654   1.199  0.7953  0.4494  0.4173
    1GOFLA C289  289   3.877   3.727   1.211 -0.0367  0.5755  0.4199
    1GOFLA C290  290   3.632   3.869   1.204  0.1321 -0.7559  0.5466
    1GOFLA C291  291   3.756   3.939   1.197  0.4070  0.1668  0.1577
    1GOFLA C292  292   3.508   4.082   1.168 -0.6086 -0.8375 -0.9819
    1GOFLA C293  293   3.632   4.156   1.173 -0.1504  0.1346  0.5990
    1GOFLA C294  294   5.347   1.303   1.205  0.2178 -0.5096 -0.4403
    1GOFLA C295  295   5.471   1.377   1.217 -0.0436  0.5097 -0.5061
    1GOFLA C296  296   5.225   1.515   1.201  0.4920 -0.3367 -0.0606
    1GOFLA C297  297   5.345   1.589   1.196 -0.4999  0.2220 -0.1964
    1GOFLA C298  298   5.105   1.736   1.212 -0.2649 -0.6293 -0.3287
    1GOFLA C299  299   5.228   1.805   1.196 -0.5436 -0.6994  0.3475
    1GOFLA C300  300   4.982   1.952   1.190  0.5049  0.6274 -0.8730
    1GOFLA C301  301   5.104   2.024   1.200  0.2467  0.0581 -0.2142
    1GOFLA C302  302   4.858   2.159   1.214  0.9304 -0.8383 -0.1593
    1GOFLA C303  303   4.981   2.233   1.202 -0.1909 -0.0812 -0.3644
    1GOFLA C304  304   4.739   2.372   1.216  0.2642 -0.3242  0.0688
    1GOFLA C305  305   4.862   2.444   1.218 -0.3915 -0.0097  0.1998
    1GOFLA C306  306   4.612   2.585   1.189 -0.5873  0.8372 -1.1245
    1GOFLA C307  307   4.736   2.657   1.197 -0.7315  0.3289  0.0862
    1GOFLA C308  308   4.487   2.796   1.188  0.3274 -0.5296 -0.2781
    1GOFLA C309  309   4.608   2.866   1.180  0.0263 -0.5005  0.2844
    1GOFLA C310  310   4.362   3.012   1.175  0.4136  0.2904  0.4511
    1GOFLA C311  311   4.479   3.089   1.171  0.3464 -0.0728  0.2990
    1GOFLA C312  312   4.233   3.225   1.188 -0.1844 -0.0719 -0.1815
    1GOFLA C313  313   4.353   3.293   1.201 -0.9234  0.4424  0.1423
    1GOFLA C314  314   4.117   3.440   1.200 -0.3689  0.1861  0.0400
    1GOFLA C315  315   4.239   3.506   1.206 -0.6192  0.4671 -0.2334
    1GOFLA C316  316   3.996   3.650   1.209 -0.0300  0.4695  0.2858
    1GOFLA C317  317   4.117   3.720   1.216  0.2320  0.0703  0.9737
    1GOFLA C318  318   3.873   3.867   1.225 -0.1731  0.0612  0.4791
    1GOFLA C319  319   3.996   3.937   1.233 -1.1652 -0.7005  0.2157
    1GOFLA C320  320   3.753   4.079   1.187 -0.8656 -0.5821  0.1056
    1GOFLA C321  321   3.880   4.146   1.175 -0.7148 -0.3111  0.0114
    1GOFLA C322  322   5.597   1.308   1.214  0.5618  0.4345  0.1414
    1GOFLA C323  323   5.719   1.379   1.219 -0.4281  0.2514  0.4809
    1GOFLA C324  324   5.472   1.516   1.210  0.2894 -0.1381 -0.1490
    1GOFLA C325  325   5.593   1.588   1.213  0.3139 -0.7353 -0.6268
    1GOFLA C326  326   5.348   1.730   1.195  0.1316 -0.1638  0.0428
    1GOFLA C327  327   5.473   1.806   1.185 -0.1519  0.6463  0.0444
    1GOFLA C328  328   5.232   1.952   1.205  0.1723 -0.0565 -0.4878
    1GOFLA C329  329   5.352   2.018   1.176  0.0892 -0.0566  0.1680
    1GOFLA C330  330   5.106   2.163   1.206  1.0379  0.1006 -0.1440
    1GOFLA C331  331   5.228   2.232   1.193 -0.6173  0.0734 -0.3113
    1GOFLA C332  332   4.987   2.373   1.216  0.4400  0.8024 -0.0062
    1GOFLA C333  333   5.109   2.443   1.209  0.5062 -0.3991  0.2256
    1GOFLA C334  334   4.861   2.586   1.202  0.3828 -0.1406  0.5803
    1GOFLA C335  335   4.984   2.660   1.182  0.2206 -0.0490 -0.2291
    1GOFLA C336  336   4.731   2.797   1.168 -0.6855 -0.3684 -0.0947
    1GOFLA C337  337   4.855   2.871   1.163 -0.4072 -0.3883 -0.1471
    1GOFLA C338  338   4.602   3.016   1.174 -0.4509  0.4084 -0.3483
    1GOFLA C339  339   4.728   3.091   1.159  0.7778 -0.2444 -0.1296
    1GOFLA C340  340   4.475   3.233   1.174 -0.4315  0.0944  0.3226
    1GOFLA C341  341   4.602   3.303   1.171  0.2715  0.0506  0.3078
    1GOFLA C342  342   4.357   3.433   1.206 -0.9041 -0.1674 -0.1477
    1GOFLA C343  343   4.477   3.507   1.204  0.8304  0.1197 -0.3958
    1GOFLA C344  344   4.236   3.649   1.211  0.0359 -0.0153 -0.4898
    1GOFLA C345  345   4.356   3.720   1.221 -0.5338  1.0541  0.3262
    1GOFLA C346  346   4.115   3.863   1.210  0.0251 -0.3829  0.2332
    1GOFLA C347  347   4.244   3.932   1.218  0.1773 -0.6510 -0.0036
    1GOFLA C348  348   4.000   4.079   1.213 -0.6193  0.5579 -0.3222
    1GOFLA C349  349   4.118   4.153   1.225 -0.8664  0.0848  0.0671
    1GOFLA C350  350   5.843   1.305   1.198  0.2321  0.1456  0.5869
    1GOFLA C351  351   5.969   1.378   1.181 -0.0862  0.3343  0.3479
    1GOFLA C352  352   5.715   1.521   1.233  0.1826 -0.1105 -0.8378
    1GOFLA C353  353   5.842   1.593   1.224  0.3164 -0.1819  1.1311
    1GOFLA C354  354   5.595   1.731   1.190 -0.1059 -0.5184  0.1469
    1GOFLA C355  355   5.720   1.799   1.195  0.3011  0.6597 -0.8068
    1GOFLA C356  356   5.473   1.946   1.182 -0.8229 -0.5937  0.2665
    1GOFLA C357  357   5.596   2.013   1.201 -0.9279 -0.1182 -0.3233
    1GOFLA C358  358   5.352   2.161   1.181  0.2750  0.7691 -0.0151
    1GOFLA C359  359   5.475   2.231   1.195 -0.0774  0.5799 -0.0345
    1GOFLA C360  360   5.229   2.373   1.203 -0.8042  0.3483 -0.3321
    1GOFLA C361  361   5.352   2.448   1.206 -0.7906  0.2113 -0.2115
    1GOFLA C362  362   5.106   2.587   1.208 -0.0062 -0.1876 -0.2372
    1GOFLA C363  363   5.228   2.663   1.204  0.7144 -0.2560  0.3248
    1GOFLA C364  364   4.983   2.802   1.173  0.0580  0.3627  0.4929
    1GOFLA C365  365   5.099   2.878   1.192 -0.2852  0.0208  0.3343
    1GOFLA C366  366   4.848   3.016   1.171  0.3536 -0.4678  0.9849
    1GOFLA C367  367   4.972   3.089   1.174 -0.1817  0.8394 -0.1240
    1GOFLA C368  368   4.721   3.233   1.168 -0.5367  0.3525  0.0999
    1GOFLA C369  369   4.840   3.306   1.149 -0.2684  0.4855 -0.4532
    1GOFLA C370  370   4.598   3.441   1.199 -0.4197  0.3061  0.2995
    1GOFLA C371  371   4.721   3.518   1.195 -0.3802  0.4847  0.1652
    1GOFLA C372  372   4.481   3.652   1.220  0.3601  0.0722  1.1046
    1GOFLA C373  373   4.603   3.721   1.208 -0.5091  0.3134 -0.2223
    1GOFLA C374  374   4.362   3.859   1.208 -0.5349 -0.0381 -0.2187
    1GOFLA C375  375   4.485   3.932   1.193 -0.3596 -0.5351 -0.0888
    1GOFLA C376  376   4.242   4.079   1.209  0.1165  0.7017 -0.1720
    1GOFLA C377  377   4.369   4.146   1.203 -0.8114  0.4549  0.3224
    1GOFLA C378  378   6.088   1.307   1.178  0.2709 -0.1092 -0.0604
    1GOFLA C379  379   6.211   1.374   1.174 -0.3962  0.4601 -0.6707
    1GOFLA C380  380   5.965   1.520   1.193  0.5474 -0.5920  0.4615
    1GOFLA C381  381   6.092   1.590   1.191 -0.3331  0.0347 -0.0635
    1GOFLA C382  382   5.845   1.734   1.218 -0.8090  0.0096  0.0606
    1GOFLA C383  383   5.972   1.805   1.208 -0.3301  0.1956  0.2379
    1GOFLA C384  384   5.721   1.942   1.203  0.2642  0.3936  0.7859
    1GOFLA C385  385   5.842   2.010   1.220  0.5467  0.2559  0.4807
    1GOFLA C386  386   5.595   2.154   1.217 -0.2275 -0.5683 -0.4331
    1GOFLA C387  387   5.721   2.223   1.242 -0.2940 -0.2019 -0.1933
    1GOFLA C388  388   5.474   2.372   1.194 -0.5708 -0.0952 -0.2452
    1GOFLA C389  389   5.597   2.443   1.201  0.2103 -0.0040 -0.1275
    1GOFLA C390  390   5.351   2.592   1.207  0.2840 -0.0128  0.8922
    1GOFLA C391  391   5.472   2.662   1.184 -0.1876  0.1629 -0.0558
    1GOFLA C392  392   5.224   2.804   1.212 -0.5413  0.4201  0.1206
    1GOFLA C393  393   5.347   2.877   1.211 -0.3731 -1.1186 -0.4129
    1GOFLA C394  394   5.099   3.020   1.164  0.0953  1.1562  0.3237
    1GOFLA C395  395   5.218   3.089   1.196  0.4516  0.0220 -0.5950
    1GOFLA C396  396   4.967   3.235   1.175 -0.5202 -0.0893 -0.1772
    1GOFLA C397  397   5.092   3.302   1.167 -0.1535 -0.2267 -0.1158
    1GOFLA C398  398   4.840   3.444   1.171  0.1561  0.0838  0.8714
    1GOFLA C399  399   4.964   3.509   1.179  0.0434  0.0579  0.4353
    1GOFLA C400  400   4.724   3.653   1.208  0.0376  0.3300 -0.0272
    1GOFLA C401  401   4.853   3.716   1.201  0.3952 -0.1671 -0.3062
    1GOFLA C402  402   4.608   3.858   1.192  0.1128 -1.1698 -0.4064
    1GOFLA C403  403   4.733   3.927   1.185  0.1809 -0.3769 -0.2233
    1GOFLA C404  404   4.488   4.075   1.185 -0.5245 -0.0798 -0.2861
    1GOFLA C405  405   4.615   4.144   1.189  0.8630  0.6042 -0.0809
    1GOFLA C406  406   6.214   1.513   1.186 -0.2606 -0.8946 -0.1892
    1GOFLA C407  407   6.096   1.735   1.188 -0.0712 -0.3060 -0.7082
    1GOFLA C408  408   5.969   1.946   1.221  0.4344 -0.3844 -0.1291
    1GOFLA C409  409   5.842   2.150   1.252 -0.1324  0.4555  0.0156
    1GOFLA C410  410   5.720   2.366   1.221 -0.5479 -0.4252 -0.3464
    1GOFLA C411  411   5.596   2.589   1.192  0.3340 -0.2416  0.1948
    1GOFLA C412  412   5.466   2.804   1.177  0.7219 -0.2108  0.1723
    1GOFLA C413  413   5.343   3.025   1.222 -0.0319  0.8225  0.5058
    1GOFLA C414  414   5.215   3.234   1.196 -0.3354  0.0474 -0.5721
    1GOFLA C415  415   5.081   3.438   1.205  0.1658  0.1408 -0.8237
    1GOFLA C416  416   4.964   3.643   1.150  0.5121 -0.6090 -0.2037
    1GOFLA C417  417   4.858   3.857   1.190  0.1387 -0.5807 -0.4781
    1GOFLA C418  418   4.735   4.071   1.183 -0.6575 -0.1099  0.9479
    1GOFLA H419  419   2.671   1.337   1.204 -1.3842  0.5580 -0.9749
    1GOFLA H420  420   2.555   1.555   1.202  0.2120 -0.8596  2.5612
    1GOFLA H421  421   2.441   1.758   1.213  0.3757 -1.3347  0.0568
    1GOFLA H422  422   2.330   1.977   1.112 -0.2572  0.1984 -0.6557
    1GOFLA H423  423   2.178   2.189   1.161 -0.3749 -0.0924  1.4629
    1GOFLA H424  424   2.051   2.398   1.208  0.2844 -0.0848  1.7952
    1GOFLA H425  425   1.940   2.607   1.154  0.1300  0.1325 -0.1627
    1GOFLA H426  426   1.811   2.815   1.156  0.5282 -0.3065  0.8730
    1GOFLA H427  427   1.694   3.033   1.158  0.6131  0.0359 -2.7798
    1GOFLA H428  428   1.564   3.244   1.167 -1.9467  1.5805 -2.2964
    1GOFLA H429  429   1.480   3.470   1.097  1.9178 -0.7057 -1.4627
    1GOFLA H430  430   1.327   3.676   1.136  0.3226  0.0197 -0.0649
    1GOFLA H431  431   1.216   3.877   1.193 -1.9981  2.8096 -1.3988
    1GOFLA H432  432   2.876   1.206   1.206 -0.7769 -0.8267  0.5665
    1GOFLA H433  433   1.193   4.130   1.180  0.8526  1.7400 -0.7800
    1GOFLA H434  434   1.421   4.256   1.210  0.3144 -0.8369  2.4151
    1GOFLA H435  435   3.134   1.195   1.162 -0.5904  0.7449 -1.9048
    1GOFLA H436  436   1.658   4.262   1.196  1.7835 -0.0837 -2.3444
    1GOFLA H437  437   3.397   1.195   1.183 -2.3119  0.1496 -0.6496
    1GOFLA H438  438   1.899   4.258   1.197 -0.1420 -0.5570 -0.5170
    1GOFLA H439  439   3.622   1.199   1.200 -4.2182  0.4932  0.1421
    1GOFLA H440  440   2.147   4.247   1.164 -1.4340 -0.6353 -0.6740
    1GOFLA H441  441   3.876   1.207   1.197 -4.0166 -0.0542  2.3177
    1GOFLA H442  442   2.414   4.264   1.182 -1.8442  0.2090 -0.2466
    1GOFLA H443  443   4.111   1.195   1.200  1.0518  0.5550 -0.5535
    1GOFLA H444  444   2.640   4.244   1.266 -1.9351 -0.7595  1.1656
    1GOFLA H445  445   4.363   1.202   1.219 -1.5001 -0.1732 -0.2781
    1GOFLA H446  446   2.888   4.264   1.230  0.9514  0.3178 -0.6829
    1GOFLA H447  447   4.615   1.207   1.174  1.3846 -0.2250 -1.8315
    1GOFLA H448  448   3.129   4.269   1.190  1.3616  0.8669  0.3689
    1GOFLA H449  449   4.851   1.205   1.130  0.3241  0.3374  0.1913
    1GOFLA H450  450   3.392   4.270   1.191 -2.4727  1.2764  0.4750
    1GOFLA H451  451   5.095   1.198   1.212  1.7494 -1.3138 -0.9953
    1GOFLA H452  452   3.623   4.247   1.114 -0.9660  0.3733  1.0790
    1GOFLA H453  453   5.343   1.194   1.213  0.1012 -0.3713  2.7941
    1GOFLA H454  454   3.885   4.253   1.156  4.7682 -0.5937 -2.0127
    1GOFLA H455  455   5.610   1.202   1.194  0.8921  0.6958 -1.1763
    1GOFLA H456  456   4.121   4.262   1.224 -1.8219  0.1172 -0.0884
    1GOFLA H457  457   5.856   1.211   1.251  0.0372 -0.2321 -0.0274
    1GOFLA H458  458   4.388   4.234   1.265  1.0063  0.8689 -0.7423
    1GOFLA H459  459   6.084   1.198   1.186  0.1009  0.0295  2.9664
    1GOFLA H460  460   6.302   1.314   1.173  1.2902  2.7430  1.9388
    1GOFLA H461  461   4.609   4.247   1.153 -0.7142  0.2769 -0.8182
    1GOFLA H462  462   6.310   1.563   1.182 -0.6764  0.5405  3.6673
    1GOFLA H463  463   6.187   1.793   1.178 -0.9029  1.8819  2.7288
    1GOFLA H464  464   6.061   2.005   1.212 -0.7439  1.7426  0.8597
    1GOFLA H465  465   5.937   2.202   1.249 -0.3759  0.9441 -3.0227
    1GOFLA H466  466   5.818   2.411   1.202 -0.7022 -0.0361 -0.2197
    1GOFLA H467  467   5.689   2.645   1.205  1.8271 -3.0374  2.9520
    1GOFLA H468  468   5.555   2.865   1.190 -0.1613  1.5152 -1.5432
    1GOFLA H469  469   5.436   3.081   1.223  0.4620  0.1453 -1.6054
    1GOFLA H470  470   5.303   3.295   1.217 -1.8952  2.3429 -0.2426
    1GOFLA H471  471   5.173   3.489   1.234  0.0579 -0.4886  0.7787
    1GOFLA H472  472   5.005   3.668   1.052  0.3639  0.0438 -0.1018
    1GOFLA H473  473   4.955   3.906   1.184  0.2050 -0.3384  1.7229
    1GOFLA H474  474   4.822   4.122   1.141 -0.0196 -1.4153  0.6174
    1GOFLA O475  475   4.061   2.836   1.369  0.0070  0.0351  0.6254
    1GOFLA O476  476   3.300   1.387   1.334 -0.0653  0.6327 -0.5207
    1GOFLA H477  477   3.281   1.304   1.378  0.4039  0.3672 -0.8146
    1GOFLA O478  478   3.684   2.850   1.337  0.3950  0.1802 -0.1996
    1GOFLA O479  479   4.731   1.509   1.333 -0.3031 -0.6793 -0.2941
    1GOFLA H480  480   4.800   1.554   1.381 -0.3651 -1.1449  0.2452
    1GOFLA O481  481   3.267   3.592   1.323  0.2587  0.0307  0.6340
    1GOFLA O482  482   5.308   2.455   1.350 -0.6116  0.0552 -0.5348
    1GOFLA H483  483   5.291   2.538   1.395  0.4943 -0.1732  0.3489
    1GOFLA O484  484   2.767   3.156   1.317 -0.2191 -0.2617  0.3832
    1GOFLA O485  485   5.274   1.828   1.332 -0.0455  0.2121  0.4425
    1GOFLA H486  486   5.272   1.751   1.390 -2.0509 -1.5349 -1.7675
    1GOFLA O487  487   2.703   3.908   1.324 -0.3675 -0.1067  0.9155
    1GOFLA O488  488   3.283   3.966   1.350 -0.1730  0.0786 -0.3582
    1GOFLA H489  489   3.359   4.023   1.364 -0.4871  0.9137 -1.8630
    1GOFLA O490  490   4.187   2.629   1.353  0.2085  0.3551  0.5992
    1GOFLA O491  491   4.138   1.574   1.369  0.5105  0.7368  0.4806
    1GOFLA H492  492   4.172   1.650   1.418 -0.4051  2.1863 -1.0198
    1GOFLA O493  493   5.923   1.540   1.330  0.8300 -0.0489  0.0363
    1GOFLA O494  494   2.296   3.103   1.335 -0.6025  0.0279  0.0746
    1GOFLA H495  495   2.384   3.131   1.361 -0.3761 -0.0292 -0.6109
    1GOFLA O496  496   4.976   3.159   1.302 -0.2076 -0.1160 -0.3577
    1GOFLA O497  497   3.620   3.831   1.338 -0.3994  0.5797 -0.9689
    1GOFLA H498  498   3.542   3.870   1.378 -1.2698 -1.2500 -0.7823
    1GOFLA O499  499   4.440   3.893   1.322  0.0283  0.8701 -0.1868
    1GOFLA O500  500   4.303   1.356   1.345  0.0230 -0.5481  0.0585
    1GOFLA H501  501   4.246   1.387   1.417 -0.0560 -1.0651  0.2220
    1GOFLA O502  502   2.834   3.468   1.317 -0.0160 -0.1131  0.5119
    1GOFLA O503  503   4.012   4.063   1.354  0.5773 -0.3557 -0.0610
    1GOFLA H504  504   3.933   4.083   1.404  0.6996 -1.5126  0.6300
    1GOFLA O505  505   4.074   2.183   1.306  0.6116 -0.6506 -0.2340
    1GOFLA O506  506   5.580   1.561   1.357  0.1977  0.8473 -0.1950
    1GOFLA H507  507   5.548   1.643   1.395  1.0871  1.4007 -0.6124
    1GOFLA O508  508   2.720   2.396   1.319  0.6514 -0.3911 -0.2457
    1GOFLA O509  509   3.846   2.468   1.345  0.8303  0.0473  0.4569
    1GOFLA H510  510   3.837   2.377   1.374 -1.7328  0.3388  0.7633
    1GOFLA O511  511   3.810   3.491   1.332 -0.3187  0.2593 -0.5580
    1GOFLA O512  512   4.749   2.233   1.350 -0.0858 -0.3169  0.1466
    1GOFLA H513  513   4.836   2.266   1.371 -0.6077 -0.0910  2.1008
    1GOFLA O514  514   4.539   2.616   1.305 -0.4814 -0.5498 -0.0319
    1GOFLA O515  515   4.325   3.285   1.340  0.1473  0.0772 -0.3930
    1GOFLA H516  516   4.325   3.368   1.389 -2.6227  0.3201 -0.6034
    1GOFLA O517  517   3.807   1.969   1.333  0.0015  0.1525 -0.0826
    1GOFLA O518  518   2.389   2.637   1.350  0.2375  0.2380  0.0822
    1GOFLA H519  519   2.470   2.661   1.396 -0.4363  1.4517  0.6812
    1GOFLA O520  520   2.974   1.982   1.324  0.2643  0.3018  0.6774
    1GOFLA O521  521   3.293   1.798   1.357  0.4298 -0.4333  0.6396
    1GOFLA H522  522   3.303   1.707   1.388 -0.6391 -1.2390 -1.2220
    1GOFLA O523  523   3.673   3.275   1.343 -0.6101 -0.2126 -0.4120
    1GOFLA O524  524   3.361   2.086   1.356  0.4402  0.1134 -0.1328
    1GOFLA H525  525   3.355   2.017   1.422  0.2830  0.4130  0.1655
    1GOFLA O526  526   3.026   1.446   1.307  0.0982  0.3165 -0.2645
    1GOFLA O527  527   4.986   3.572   1.306  0.2903 -0.8510 -0.0892
    1GOFLA H528  528   4.925   3.527   1.366 -1.3232  0.5586 -0.6169
    1GOFLA O529  529   5.037   1.549   1.311 -0.1419  0.0171  1.0889
    1GOFLA O530  530   2.419   2.189   1.329 -0.4978 -0.2978 -0.2828
    1GOFLA H531  531   2.343   2.224   1.376  0.6839  3.1751 -0.6708
    1GOFLA O532  532   2.769   2.756   1.324  0.1070 -0.1032 -0.3341
    1GOFLA O533  533   4.687   3.207   1.307  0.3298  0.1380 -0.2301
    1GOFLA H534  534   4.760   3.156   1.342 -0.2024  0.2309  1.0731
    1GOFLA O535  535   5.134   2.844   1.322 -0.2102 -0.1144 -0.1430
    1GOFLA O536  536   5.789   2.016   1.354  0.2718  0.2662 -0.1284
    1GOFLA H537  537   5.850   2.061   1.413 -1.4754 -0.4824  2.4065
    1GOFLA O538  538   4.609   2.946   1.300  0.8126 -0.5244  0.0554
    1GOFLA O539  539   2.242   3.628   1.356 -0.1564  0.6742 -0.3024
    1GOFLA H540  540   2.164   3.669   1.394  0.1428 -0.1399  1.2640
    1GOFLA O541  541   3.201   2.846   1.312  0.3018 -0.0010 -0.1793
    1GOFLA O542  542   1.861   3.733   1.338  0.1493  0.3675  0.3184
    1GOFLA H543  543   1.906   3.670   1.395 -0.0274 -0.4473 -0.4178
    1GOFLA O544  544   2.202   3.905   1.327  0.4065 -0.4335  0.9016
    1GOFLA O545  545   2.238   2.793   1.338  0.1173 -0.5687 -0.2270
    1GOFLA H546  546   2.300   2.736   1.384  0.1700  0.0437  0.4536
    1GOFLA O547  547   3.297   3.237   1.318  0.6461 -0.1534 -0.8199
    1GOFLA O548  548   3.931   1.357   1.365  0.2328  0.3793 -0.9053
    1GOFLA H549  549   3.920   1.436   1.418  0.0525 -0.1034 -0.2169
    1GOFLA O550  550   3.534   2.609   1.344  0.2894 -0.3268  0.4943
    1GOFLA O551  551   6.035   1.813   1.339  0.3379 -0.2588  0.5749
    1GOFLA H552  552   5.977   1.772   1.404 -2.0845  1.2804 -0.4612
    2CURC    C1  553   3.494   2.026   2.087 -0.1827 -0.3295  0.1590
    2CURC    O2  554   3.630   1.983   2.105  0.0053 -0.2053 -0.3494
    2CURC    C3  555   3.732   2.073   2.079  0.1095  0.1402  0.0127
    2CURC    C4  556   3.715   2.216   2.062 -0.2075  0.0016  0.2180
    2CURC    C5  557   3.828   2.300   2.058 -0.1686  0.2039  0.3287
    2CURC    C6  558   3.811   2.446   2.044  0.7664 -0.1899  0.4296
    2CURC    C7  559   3.903   2.543   2.008  0.4031 -0.0761 -0.1113
    2CURC    C8  560   3.867   2.687   2.007 -0.0587  0.1576  0.2603
    2CURC    O9  561   3.753   2.728   2.046 -0.4160  0.1647  0.4404
    2CURC   C10  562   3.983   2.786   1.977  0.4059  0.5046  0.7776
    2CURC   C11  563   3.938   2.878   1.864 -0.1881 -0.4439 -0.1298
    2CURC   O12  564   3.992   2.875   1.753 -0.5246  0.2297 -0.3344
    2CURC   C13  565   3.874   2.995   1.922  0.0376 -0.4260 -0.1369
    2CURC   C14  566   3.805   3.081   1.847  0.1632 -0.6879 -0.2630
    2CURC   C15  567   3.737   3.206   1.882 -0.6724  0.5787  0.1834
    2CURC   C16  568   3.701   3.299   1.783  0.3895 -0.1124  0.1203
    2CURC   C17  569   3.627   3.410   1.813  0.0381 -0.0070 -0.0614
    2CURC   C18  570   3.576   3.424   1.940 -1.0023 -0.4624  0.7632
    2CURC   O19  571   3.499   3.524   1.987  0.8471  0.5965 -0.1897
    2CURC   C20  572   3.582   3.319   2.033  0.2060  0.3735 -0.7704
    2CURC   O21  573   3.537   3.357   2.156 -0.3031 -0.1746 -0.0363
    2CURC   C22  574   3.545   3.274   2.271 -0.2405 -0.2984  0.0377
    2CURC   C23  575   3.659   3.208   1.997 -1.2363  0.7096 -0.4510
    2CURC   C24  576   3.952   2.236   2.066 -0.5824  0.3072 -0.3337
    2CURC   C25  577   3.969   2.098   2.069  0.0087  0.0694 -0.3757
    2CURC   C26  578   3.859   2.015   2.068  0.3101 -0.2624 -0.2720
    2CURC   O27  579   3.862   1.883   2.082  0.0642  0.4017  0.4914
    2CURC   H28  580   3.465   2.102   2.161 -0.4616 -0.0179 -0.2665
    2CURC   H29  581   3.479   2.064   1.986  1.5046 -1.1208 -0.4223
    2CURC   H30  582   3.424   1.943   2.105  0.6854 -1.2117 -0.4697
    2CURC   H31  583   3.622   2.272   2.060  0.5095  1.2081 -1.4866
    2CURC   H32  584   3.714   2.493   2.060  0.8507 -0.0828  0.6369
    2CURC   H33  585   4.008   2.518   2.022  0.6721  1.0079 -0.1208
    2CURC   H34  586   4.055   2.717   1.933 -1.9489 -0.9212 -1.0958
    2CURC   H35  587   4.018   2.824   2.073  2.3018 -0.1658  0.3788
    2CURC   H36  588   3.855   2.993   2.029 -0.1864  0.5239 -0.1488
    2CURC   H37  589   3.832   3.084   1.741 -3.0913 -2.9090 -1.2964
    2CURC   H38  590   3.758   3.314   1.692 -0.1648  1.9347  0.0750
    2CURC   H39  591   3.547   3.436   1.745 -1.3410 -1.3217  0.9931
    2CURC   H40  592   3.482   3.591   1.919 -2.1954  0.1284 -0.0439
    2CURC   H41  593   3.648   3.247   2.300  0.2011  2.2183  1.1079
    2CURC   H42  594   3.497   3.329   2.352 -0.2511  0.1479 -0.2683
    2CURC   H43  595   3.487   3.181   2.267 -0.0970 -0.7378  3.9249
    2CURC   H44  596   3.679   3.133   2.072  1.5052  0.7036 -1.0677
    2CURC   H45  597   4.046   2.288   2.075  0.7955 -1.8669 -1.4782
    2CURC   H46  598   4.050   2.063   2.133 -0.3740 -0.0449  0.0557
    2CURC   H47  599   3.953   1.850   2.077 -0.9196 -2.3817 -1.3738
    3SOL     OW  600   0.829   2.809   1.540  0.0452 -0.5856  0.4408
    3SOL    HW1  601   0.847   2.900   1.516  3.6684 -1.6685 -1.6485
    3SOL    HW2  602   0.733   2.803   1.540 -0.3174  2.9558 -0.2773
    4SOL     OW  603   1.355   0.170   0.493 -0.7534 -0.5301  1.0634
    4SOL    HW1  604   1.379   0.254   0.456 -0.6149 -0.4073  1.4276
    4SOL    HW2  605   1.374   0.106   0.424 -0.5802 -0.2965  0.8953
    5SOL     OW  606   0.235   1.006   0.120  0.5597 -0.2691  0.3901
    5SOL    HW1  607   0.212   0.936   0.059 -2.4933  0.8703  0.0372
    5SOL    HW2  608   0.179   0.989   0.197 -0.1091  1.6078  0.3617
    6SOL     OW  609   7.049   1.806   2.071 -0.3545 -0.8326  0.2939
    6SOL    HW1  610   7.044   1.741   2.000  0.6511 -1.3480  0.6709
    6SOL    HW2  611   7.128   1.857   2.051 -0.3950 -0.5993  0.7254
    7SOL     OW  612   1.455   1.522   3.435  0.4177 -0.3364  0.2452
    7SOL    HW1  613   1.517   1.593   3.417 -0.3287  0.0206 -1.0382
    7SOL    HW2  614   1.377   1.567   3.470  0.1849 -0.5820  0.0460
    8SOL     OW  615   0.549   0.100   1.515 -0.4494  0.0763  0.1743
    8SOL    HW1  616   0.525   0.188   1.486  0.0662  0.3377  0.5233
    8SOL    HW2  617   0.467   0.064   1.550 -0.2659  1.1614  1.8709
    9SOL     OW  618   2.404   0.940   0.228  0.0903  0.2415  0.1650
    9SOL    HW1  619   2.424   0.917   0.137  1.7940 -0.8903  0.7982
    9SOL    HW2  620   2.425   0.862   0.278  0.9972  1.4666  1.7627
   10SOL     OW  621   0.483   1.913   0.666  0.1072  0.1404 -0.8394
   10SOL    HW1  622   0.492   1.826   0.705 -0.3216  0.9290  1.1321
   10SOL    HW2  623   0.422   1.900   0.594  1.1344 -1.4312 -1.4992
   11SOL     OW  624   7.376   5.427   1.335 -0.3056  0.0355 -0.3254
   11SOL    HW1  625   7.316   5.353   1.338 -0.9527  0.5052 -1.3872
   11SOL    HW2  626   7.399   5.435   1.243  0.3779  0.6751 -0.1061
   12SOL     OW  627   0.892   0.740   1.258  0.0253 -0.4592  0.5666
   12SOL    HW1  628   0.986   0.756   1.253 -0.0144 -0.1799  0.6757
   12SOL    HW2  629   0.884   0.653   1.297  0.2463 -0.6770  0.1240
   13SOL     OW  630   0.799   2.550   1.936 -0.0650  1.2100 -0.0101
   13SOL    HW1  631   0.741   2.624   1.952  0.4076  1.9893 -1.6823
   13SOL    HW2  632   0.877   2.569   1.990 -1.0847  0.4042  1.8523
   14SOL     OW  633   0.466   1.468   3.534  0.5619 -0.0083  0.2612
   14SOL    HW1  634   0.538   1.409   3.513 -0.0954 -0.4223 -0.9218
   14SOL    HW2  635   0.388   1.413   3.532  0.0218  0.7474 -0.1436
   15SOL     OW  636   7.462   2.723   2.304 -0.1528  0.0872  0.3323
   15SOL    HW1  637   7.375   2.685   2.317 -0.0027 -1.2871 -2.0910
   15SOL    HW2  638   7.522   2.649   2.311  0.9611  1.1012  2.4663
   16SOL     OW  639   7.418   1.062   2.761  0.1207 -0.3820  0.4407
   16SOL    HW1  640   7.402   1.155   2.777  2.8920  0.7193 -2.1627
   16SOL    HW2  641   7.465   1.032   2.838  1.7966  1.2320  0.1279
   17SOL     OW  642   1.340   0.837   1.552 -0.5507 -0.0180 -0.0976
   17SOL    HW1  643   1.267   0.873   1.501  0.6368  2.0408 -0.4660
   17SOL    HW2  644   1.383   0.914   1.588  0.2491 -1.2959  1.8276
   18SOL     OW  645   7.192   1.661   0.054  0.1521  0.4551  0.0692
   18SOL    HW1  646   7.202   1.711   0.136  0.7750 -0.7326  0.7517
   18SOL    HW2  647   7.218   1.572   0.078  1.4795  0.3235 -1.7047
   19SOL     OW  648   0.915   1.192   1.790 -0.2307  0.1752  0.3005
   19SOL    HW1  649   0.821   1.172   1.783 -0.5506  1.3879  0.8073
   19SOL    HW2  650   0.921   1.253   1.864  1.3943 -2.3790  2.4947
   20SOL     OW  651   1.183   2.536   0.128 -0.0799 -0.0271 -0.6083
   20SOL    HW1  652   1.171   2.631   0.131  0.4582  0.0993 -1.8868
   20SOL    HW2  653   1.163   2.512   0.037 -0.9948 -1.2581 -0.1136
   21SOL     OW  654   7.016   1.923   1.024  0.4115 -0.0212  0.7831
   21SOL    HW1  655   6.923   1.946   1.019  0.2491 -0.4477  1.6399
   21SOL    HW2  656   7.024   1.845   0.968  0.0446 -0.5731  1.4819
   22SOL     OW  657   7.149   1.758   0.763  0.0474  0.1285 -0.2247
   22SOL    HW1  658   7.225   1.700   0.771 -0.6865 -1.5001 -3.5719
   22SOL    HW2  659   7.169   1.814   0.689 -0.8246  1.7354  0.7024
   23SOL     OW  660   0.956   1.394   3.134  0.2661  0.0542 -0.0515
   23SOL    HW1  661   1.016   1.466   3.153  0.8894 -0.9979  2.3673
   23SOL    HW2  662   0.872   1.424   3.167  0.7270 -0.6300  1.8514
   24SOL     OW  663   1.956   4.046   0.877 -0.6718 -0.7753  0.1957
   24SOL    HW1  664   2.012   3.979   0.916 -2.1437 -1.4511  1.2517
   24SOL    HW2  665   1.898   4.074   0.948  0.4345  2.3100  0.0331
   25SOL     OW  666   0.657   0.428   3.526 -0.5674  0.0428 -0.5082
   25SOL    HW1  667   0.648   0.381   3.443 -1.9585 -1.4640  0.4237
   25SOL    HW2  668   0.585   0.394   3.580  0.3123  0.9604  1.3123
   26SOL     OW  669   2.858   1.818   0.524  0.5923 -0.0698 -0.6489
   26SOL    HW1  670   2.774   1.852   0.554  0.1215 -1.1258 -0.7269
   26SOL    HW2  671   2.910   1.809   0.604  0.2762 -0.3338 -0.4675
   27SOL     OW  672   1.301   1.709   0.096 -0.4280  0.0080 -0.0240
   27SOL    HW1  673   1.370   1.658   0.138 -0.4343 -0.7730 -0.9310
   27SOL    HW2  674   1.346   1.783   0.056 -0.0136 -0.8179 -1.1241
   28SOL     OW  675   1.261   1.763   1.042 -0.3763  0.9743 -0.3873
   28SOL    HW1  676   1.188   1.728   0.990  0.1597  0.2536 -0.6615
   28SOL    HW2  677   1.220   1.792   1.124 -0.7985 -0.6367  0.0101
   29SOL     OW  678   2.029   1.465   0.370 -0.8509 -0.2342 -0.5713
   29SOL    HW1  679   1.965   1.536   0.378 -1.7360 -0.7160 -2.5623
   29SOL    HW2  680   2.099   1.503   0.316 -0.3736 -0.3131 -0.0215
   30SOL     OW  681   0.428   0.616   1.544  0.3772  0.5251  0.1324
   30SOL    HW1  682   0.359   0.644   1.483  0.6673  0.7155 -0.1173
   30SOL    HW2  683   0.501   0.676   1.525  2.0381 -2.0348 -2.3388
   31SOL     OW  684   0.874   2.026   1.843 -0.1838  0.0060 -0.3616
   31SOL    HW1  685   0.865   1.978   1.925 -0.4775 -0.9228 -0.9296
   31SOL    HW2  686   0.887   2.117   1.871  1.8306 -0.5639  0.7835
   32SOL     OW  687   1.798   2.193   1.832 -0.0827 -0.3102  0.2920
   32SOL    HW1  688   1.842   2.277   1.818  0.2134 -0.6917 -1.3241
   32SOL    HW2  689   1.852   2.148   1.897  0.6127  0.1590  0.0530
   33SOL     OW  690   0.893   1.165   0.328  0.0752  0.2664  0.3426
   33SOL    HW1  691   0.815   1.211   0.297 -0.4111  0.2178  1.4344
   33SOL    HW2  692   0.917   1.107   0.256 -0.4944  0.7838 -0.2720
   34SOL     OW  693   0.639   0.374   0.312  0.0576  0.5431 -0.3371
   34SOL    HW1  694   0.636   0.380   0.408 -1.2871  0.0991 -0.3440
   34SOL    HW2  695   0.733   0.376   0.291  0.3591  0.8264  0.9715
   35SOL     OW  696   1.283   1.141   2.939  0.3668  0.3744  0.2261
   35SOL    HW1  697   1.354   1.093   2.897  0.3249  2.3118 -2.3776
   35SOL    HW2  698   1.314   1.232   2.943 -0.6662  0.6889  2.2139
   36SOL     OW  699   7.363   1.065   0.879 -0.1110  0.5756  0.0474
   36SOL    HW1  700   7.338   1.031   0.793  1.8765 -0.4749 -0.1880
   36SOL    HW2  701   7.366   1.160   0.868  0.8592  0.4160 -1.2931
   37SOL     OW  702   7.008   5.419   1.580 -0.2135  0.3963  0.6340
   37SOL    HW1  703   6.940   5.388   1.641 -1.4452  0.9680 -0.3919
   37SOL    HW2  704   7.077   5.353   1.586 -1.7405 -1.3648  0.2221
   38SOL     OW  705   1.362   1.029   1.760  0.1952 -0.4486  0.2339
   38SOL    HW1  706   1.335   1.119   1.741  1.7814 -0.0853 -0.4708
   38SOL    HW2  707   1.325   1.010   1.847  0.7070  1.2581  0.8567
   39SOL     OW  708   1.836   1.765   0.766 -0.4817  0.2781 -0.4254
   39SOL    HW1  709   1.847   1.849   0.722  0.8529  0.9128  0.9985
   39SOL    HW2  710   1.753   1.774   0.813 -0.8277  0.4286 -1.0643
   40SOL     OW  711   1.379   4.942   0.957  0.1458  0.2185  0.4981
   40SOL    HW1  712   1.388   4.940   1.052  2.2432 -0.9948  0.3407
   40SOL    HW2  713   1.430   5.018   0.929 -2.1409  1.8215  0.3958
   41SOL     OW  714   1.160   5.376   0.688 -0.1716  0.1470  0.6463
   41SOL    HW1  715   1.133   5.463   0.659  0.5599  0.0227 -0.4565
   41SOL    HW2  716   1.081   5.339   0.729 -1.0111  0.6366 -0.4941
   42SOL     OW  717   7.316   0.629   1.099  0.1045  0.0696  0.5280
   42SOL    HW1  718   7.273   0.584   1.025  0.2506 -1.0913  1.1209
   42SOL    HW2  719   7.286   0.720   1.092 -0.7004 -0.2408 -0.3610
   43SOL     OW  720   1.287   0.032   3.272 -0.5993 -0.1364  0.4705
   43SOL    HW1  721   1.321   0.100   3.213  0.9312 -1.9219 -0.8092
   43SOL    HW2  722   1.198   0.060   3.291  0.1373  2.4931  0.4159
   44SOL     OW  723   2.372   1.803   2.132  0.1501  0.4148  0.5085
   44SOL    HW1  724   2.318   1.751   2.191  2.0095 -1.5296  0.5962
   44SOL    HW2  725   2.441   1.839   2.187 -0.1923  1.7035  0.1424
   45SOL     OW  726   2.824   5.174   2.398 -0.0761 -0.3860  0.6889
   45SOL    HW1  727   2.870   5.204   2.476  0.4291 -0.5156  0.4516
   45SOL    HW2  728   2.887   5.116   2.355 -0.6046 -0.8626  0.5435
   46SOL     OW  729   1.042   0.707   2.483 -0.1941  0.5792  0.3963
   46SOL    HW1  730   1.094   0.707   2.403 -0.5192 -0.8291  0.1591
   46SOL    HW2  731   1.003   0.795   2.486 -1.5894  0.1541 -1.9539
   47SOL     OW  732   1.874   0.641   0.675  0.5652 -0.0772  0.1356
   47SOL    HW1  733   1.947   0.608   0.728 -0.9757  0.7536  2.9618
   47SOL    HW2  734   1.894   0.734   0.661 -0.0864  0.2415  1.2338
   48SOL     OW  735   0.994   1.829   3.341 -0.1368  0.3112  0.5083
   48SOL    HW1  736   1.007   1.750   3.393  1.2981 -0.7193 -1.2997
   48SOL    HW2  737   0.903   1.824   3.312  0.2169 -1.2508 -0.4140
   49SOL     OW  738   7.345   1.147   0.353  0.1045 -0.6014 -0.5197
   49SOL    HW1  739   7.421   1.091   0.333 -0.9688 -3.1321  1.8914
   49SOL    HW2  740   7.363   1.181   0.441 -0.6944  0.3845 -0.7190
   50SOL     OW  741   0.547   4.854   3.449  0.1045 -0.3205 -0.3948
   50SOL    HW1  742   0.500   4.934   3.474  0.6499 -0.2836  0.5895
   50SOL    HW2  743   0.637   4.884   3.433  0.6941 -0.9507  1.5320
   51SOL     OW  744   2.001   1.654   1.508 -0.2556 -0.2730  0.1638
   51SOL    HW1  745   2.004   1.678   1.600 -0.9184  1.8344 -0.3056
   51SOL    HW2  746   1.912   1.675   1.480 -0.2171 -1.3368 -0.8543
   52SOL     OW  747   1.607   1.739   1.724 -0.0590  0.0996  0.0999
   52SOL    HW1  748   1.691   1.758   1.681 -0.1522 -0.6301 -0.4340
   52SOL    HW2  749   1.559   1.686   1.660 -0.9592  0.5657  0.3759
   53SOL     OW  750   0.925   0.078   0.878  0.3260  0.2568 -0.2759
   53SOL    HW1  751   0.909  -0.011   0.845 -0.2047  1.1414 -2.5698
   53SOL    HW2  752   0.935   0.066   0.973 -1.1672 -2.0581 -0.3070
   54SOL     OW  753   1.340   1.686   1.352  0.6764 -0.4738 -0.3817
   54SOL    HW1  754   1.313   1.746   1.422  1.0892 -0.2880 -0.3774
   54SOL    HW2  755   1.258   1.658   1.312  0.3888 -1.2258  0.7040
   55SOL     OW  756   0.269   2.559   0.895  0.1963  0.3768  0.1019
   55SOL    HW1  757   0.226   2.643   0.885 -0.6752 -0.2839 -2.4001
   55SOL    HW2  758   0.347   2.565   0.841  1.1561  0.1708  1.3994
   56SOL     OW  759   2.368   0.446   1.685 -0.0073  0.2252  0.2124
   56SOL    HW1  760   2.339   0.517   1.627  0.4360  1.6619  1.6741
   56SOL    HW2  761   2.347   0.366   1.637 -0.5004  1.3325 -1.5153
   57SOL     OW  762   6.585   1.229   2.138 -0.4847  0.3862  0.2380
   57SOL    HW1  763   6.627   1.314   2.151 -0.6997  0.5223  0.0335
   57SOL    HW2  764   6.493   1.249   2.125 -0.1281  0.4041 -3.0476
   58SOL     OW  765   0.562   1.695   0.854  0.0184  0.4169 -0.4524
   58SOL    HW1  766   0.540   1.606   0.828 -3.7414  0.3481  2.1794
   58SOL    HW2  767   0.598   1.686   0.943  1.2081  1.4567 -0.7953
   59SOL     OW  768   1.017   1.193   0.575  0.2450  0.5630 -0.0928
   59SOL    HW1  769   0.942   1.197   0.516 -0.0354  1.2000  0.2921
   59SOL    HW2  770   1.046   1.284   0.582  0.6984  0.3978  0.2096
   60SOL     OW  771   0.932   0.674   2.858  0.1673  0.4250  0.5535
   60SOL    HW1  772   0.884   0.599   2.822  2.6953 -1.2607  0.3794
   60SOL    HW2  773   0.939   0.656   2.952  1.6380 -0.1444  0.3638
   61SOL     OW  774   0.890   0.914   1.796 -0.1189  0.0290 -0.0469
   61SOL    HW1  775   0.971   0.867   1.776 -0.2287 -0.3822  0.4634
   61SOL    HW2  776   0.911   1.006   1.776  0.5763 -0.0274  0.3490
   62SOL     OW  777   0.189   5.145   1.282  0.2768 -0.5423 -0.0221
   62SOL    HW1  778   0.219   5.232   1.254  1.9534 -1.5735 -1.6726
   62SOL    HW2  779   0.250   5.084   1.239 -0.3362 -2.5091  1.7479
   63SOL     OW  780   1.391   1.936   0.012  0.1824  0.6528  0.7235
   63SOL    HW1  781   1.302   1.969   0.021  0.3766  1.6467 -0.5610
   63SOL    HW2  782   1.447   2.014   0.021  0.8375  0.2258  0.4791
   64SOL     OW  783   7.288   2.274   1.673  0.3691  0.6514 -0.0393
   64SOL    HW1  784   7.266   2.367   1.671  0.5825  0.7814  1.7128
   64SOL    HW2  785   7.384   2.272   1.669  0.5787  0.7451  2.7851
   65SOL     OW  786   1.893   0.043   0.227 -0.3300 -0.1217 -0.6255
   65SOL    HW1  787   1.800   0.062   0.226 -0.4163 -0.4617  0.0821
   65SOL    HW2  788   1.935   0.128   0.209 -0.7372  0.5069  1.1622
   66SOL     OW  789   6.780   2.129   1.564  0.0122 -0.5249 -0.0089
   66SOL    HW1  790   6.748   2.178   1.640  1.9940 -1.5153  1.5722
   66SOL    HW2  791   6.749   2.040   1.578  0.5752 -0.7620 -0.2378
   67SOL     OW  792   6.899   1.730   1.448 -0.2421  0.0282 -0.4406
   67SOL    HW1  793   6.914   1.650   1.396 -1.0394  0.5456 -1.5114
   67SOL    HW2  794   6.926   1.801   1.390 -0.9473  0.6165 -0.0629
   68SOL     OW  795   1.189   1.958   0.541 -0.2686 -0.0724  0.1791
   68SOL    HW1  796   1.172   2.034   0.597  1.2203  1.0815 -0.8044
   68SOL    HW2  797   1.183   1.993   0.452  1.0864 -0.9412 -0.2890
   69SOL     OW  798   2.223   5.415   3.238  0.1751 -0.1613  0.1017
   69SOL    HW1  799   2.131   5.400   3.217 -0.4111  1.7505  1.0787
   69SOL    HW2  800   2.263   5.435   3.153  0.1486 -2.7653 -0.6160
   70SOL     OW  801   1.292   5.333   3.514 -0.0622  0.2410 -0.6509
   70SOL    HW1  802   1.301   5.245   3.476  1.2099 -0.0606  0.2889
   70SOL    HW2  803   1.258   5.386   3.442 -1.2219 -1.0761 -1.1424
   71SOL     OW  804   7.469   5.188   1.871  0.0485  0.3813 -0.7244
   71SOL    HW1  805   7.518   5.132   1.930  1.0404  1.8492 -0.1053
   71SOL    HW2  806   7.482   5.148   1.784 -1.6072 -1.9163 -0.0237
   72SOL     OW  807   0.577   1.262   0.558 -0.5541  0.0150 -0.0673
   72SOL    HW1  808   0.583   1.244   0.464  0.3669  1.0892 -0.2327
   72SOL    HW2  809   0.607   1.182   0.600  1.0655  0.2310 -0.7370
   73SOL     OW  810   0.758   0.271   2.258 -0.2327  0.5811 -0.0930
   73SOL    HW1  811   0.696   0.276   2.185 -0.1908 -0.1562 -0.1841
   73SOL    HW2  812   0.840   0.244   2.219 -0.4875 -0.9251  0.3710
   74SOL     OW  813   0.706   1.748   0.263  0.3440  0.0858 -0.1906
   74SOL    HW1  814   0.612   1.759   0.248  0.6242  1.3856 -1.1918
   74SOL    HW2  815   0.734   1.831   0.304  0.8990 -0.6595  0.9918
   75SOL     OW  816   0.926   5.231   1.251 -0.1981 -0.4077  0.0801
   75SOL    HW1  817   0.918   5.246   1.345  0.7463  0.6201  0.0182
   75SOL    HW2  818   0.835   5.229   1.220 -0.5209  1.4598  0.7104
   76SOL     OW  819   0.156   0.804   3.518 -0.0180  0.3012  0.6345
   76SOL    HW1  820   0.209   0.767   3.589 -0.7309  1.0442  1.5828
   76SOL    HW2  821   0.120   0.727   3.472  0.6993 -0.1893  0.8783
   77SOL     OW  822   0.465   0.862   3.493 -0.0555  0.0662 -0.2710
   77SOL    HW1  823   0.556   0.874   3.467  0.2384 -0.4073  0.4985
   77SOL    HW2  824   0.421   0.826   3.416  0.9742 -2.1532  0.1003
   78SOL     OW  825   7.410   0.954   2.508 -0.3473  0.8602  0.2767
   78SOL    HW1  826   7.405   0.973   2.601  0.1417  0.9861  0.2830
   78SOL    HW2  827   7.418   0.859   2.503 -2.4236  0.6445  0.2610
   79SOL     OW  828   1.635   0.125   0.258 -0.4879 -0.4082 -0.0289
   79SOL    HW1  829   1.649   0.211   0.297  1.1207 -0.9835  0.7191
   79SOL    HW2  830   1.566   0.140   0.193 -1.2156  1.1489  1.0358
   80SOL     OW  831   0.879   5.284   0.416 -0.0028  0.3940 -0.0731
   80SOL    HW1  832   0.857   5.193   0.436 -1.4102  0.6249 -0.4183
   80SOL    HW2  833   0.918   5.281   0.329 -0.0444  0.1069 -0.0828
   81SOL     OW  834   0.354   2.870   1.105  0.2871 -0.1389  0.1732
   81SOL    HW1  835   0.448   2.867   1.117  0.2986  1.6616  0.8371
   81SOL    HW2  836   0.330   2.961   1.124 -1.5330 -0.4716 -0.3136
   82SOL     OW  837   1.389   5.424   0.828 -0.1768 -0.0110  0.2342
   82SOL    HW1  838   1.325   5.397   0.762 -0.0943  0.3087  0.0167
   82SOL    HW2  839   1.339   5.431   0.909 -0.3987  0.1421  0.0864
   83SOL     OW  840   0.377   0.672   1.806  0.0620  0.2776  0.4353
   83SOL    HW1  841   0.463   0.706   1.830  0.1762  0.5570 -0.3459
   83SOL    HW2  842   0.381   0.659   1.711 -0.0228 -1.7969  0.6620
   84SOL     OW  843   2.346   0.479   0.086 -0.6777  0.4716  0.1512
   84SOL    HW1  844   2.336   0.403   0.143  1.5924 -1.4560 -1.7855
   84SOL    HW2  845   2.425   0.522   0.117  1.0607 -1.0678 -1.8510
   85SOL     OW  846   7.479   0.318   3.432  0.1081 -0.0438  0.8240
   85SOL    HW1  847   7.389   0.295   3.413  0.7643 -1.4564 -0.8962
   85SOL    HW2  848   7.530   0.273   3.364  2.0982  0.7416  1.7127
   86SOL     OW  849   0.952   0.135   2.097 -0.1186  0.0895  0.3735
   86SOL    HW1  850   0.986   0.140   2.008  0.3560  0.3172  0.5624
   86SOL    HW2  851   0.957   0.042   2.119 -1.1777 -0.1109 -0.1900
   87SOL     OW  852   1.095   4.989   0.894 -0.1048  0.0329  0.0680
   87SOL    HW1  853   1.189   5.001   0.909 -0.0034 -0.7060  0.0974
   87SOL    HW2  854   1.059   5.077   0.894  0.7540  0.4125 -0.9949
   88SOL     OW  855   1.560   0.368   2.542  0.2979  0.1780  0.5919
   88SOL    HW1  856   1.628   0.423   2.503  1.9945 -1.3144  1.3151
   88SOL    HW2  857   1.478   0.408   2.512  1.4559  0.8417 -2.0726
   89SOL     OW  858   1.062   1.048   0.133 -0.0581  0.1527 -0.5532
   89SOL    HW1  859   1.115   1.003   0.198 -1.4194 -2.2299 -0.9641
   89SOL    HW2  860   1.124   1.082   0.069  1.1326  0.4864  0.7378
   90SOL     OW  861   0.598   1.637   1.889 -0.4384  0.2107 -0.6786
   90SOL    HW1  862   0.619   1.573   1.821  2.7749  0.3254  0.0294
   90SOL    HW2  863   0.580   1.583   1.967  2.9300 -0.0450  0.0981
   91SOL     OW  864   2.471   1.306   1.012 -0.3216 -0.0682 -0.1193
   91SOL    HW1  865   2.470   1.393   0.971 -0.0679  0.1058  0.2380
   91SOL    HW2  866   2.379   1.280   1.015 -0.3386 -0.1178 -0.8665
   92SOL     OW  867   7.426   1.698   0.833 -0.2286  0.2494  0.1756
   92SOL    HW1  868   7.467   1.620   0.796 -2.3757 -0.9446  0.1604
   92SOL    HW2  869   7.416   1.679   0.926 -0.1500  0.8046  0.3025
   93SOL     OW  870   1.125   0.280   3.542 -0.2166  0.5201  0.3422
   93SOL    HW1  871   1.119   0.248   3.632 -0.4023 -0.0505  0.1325
   93SOL    HW2  872   1.219   0.294   3.528 -0.1774  0.5157  0.5908
   94SOL     OW  873   1.567   0.895   2.955 -0.0989 -0.1747  0.2291
   94SOL    HW1  874   1.562   0.974   3.009  2.0545 -0.2327  0.6245
   94SOL    HW2  875   1.620   0.834   3.007  0.4226 -0.9284 -1.1385
   95SOL     OW  876   0.779   0.454   2.744  0.5730 -0.4427  0.8509
   95SOL    HW1  877   0.785   0.371   2.697 -0.0149 -0.0812  0.1109
   95SOL    HW2  878   0.721   0.508   2.690  1.4398  0.6676  0.9931
   96SOL     OW  879   2.088   0.382   3.119 -0.6033  0.2722 -0.1328
   96SOL    HW1  880   2.020   0.316   3.110 -0.6283  0.4682 -1.5084
   96SOL    HW2  881   2.149   0.344   3.182 -0.4050 -1.2706 -1.1946
   97SOL     OW  882   0.210   0.420   1.570 -0.0453  0.5106 -0.0357
   97SOL    HW1  883   0.187   0.401   1.478 -0.4850  0.4669  0.0795
   97SOL    HW2  884   0.288   0.474   1.564  0.4640 -0.2435 -0.4141
   98SOL     OW  885   0.903   1.622   2.821  0.1787 -0.3848  0.2922
   98SOL    HW1  886   0.937   1.533   2.827  2.8663  0.4961 -0.5508
   98SOL    HW2  887   0.952   1.671   2.887 -1.4983  0.4744  0.9772
   99SOL     OW  888   0.656   0.899   2.604  0.2061  0.0012 -0.2907
   99SOL    HW1  889   0.728   0.886   2.667  1.0403  0.8947 -1.0427
   99SOL    HW2  890   0.678   0.841   2.531 -0.6037 -0.8027  0.0832
  100SOL     OW  891   1.072   0.409   0.666  0.0296 -0.2027  0.2157
  100SOL    HW1  892   1.068   0.497   0.704  2.0862  0.1060 -0.1392
  100SOL    HW2  893   1.078   0.424   0.572  1.4715 -0.6510  0.2177
  101SOL     OW  894   1.639   5.432   0.541  0.6752  0.1635  0.1186
  101SOL    HW1  895   1.628   5.515   0.494  1.8281  0.5317  0.4680
  101SOL    HW2  896   1.643   5.366   0.472  1.6051  0.6155 -0.2732
  102SOL     OW  897   1.135   1.262   2.086 -0.1236  0.0669  0.4336
  102SOL    HW1  898   1.080   1.274   2.163 -0.6503  1.3296 -0.1111
  102SOL    HW2  899   1.151   1.351   2.054 -0.2805 -0.4426 -1.1581
  103SOL     OW  900   0.262   0.433   0.178  0.7550 -0.5497  0.4578
  103SOL    HW1  901   0.171   0.411   0.159  0.9273 -0.1628 -0.9900
  103SOL    HW2  902   0.263   0.529   0.180  1.2890 -0.5172 -0.5675
  104SOL     OW  903   6.888   0.392   0.762 -0.8866  0.1065 -0.3061
  104SOL    HW1  904   6.957   0.451   0.734  0.4110 -0.7637  0.9568
  104SOL    HW2  905   6.815   0.449   0.786 -0.0532  1.1121 -0.1414
  105SOL     OW  906   1.872   4.767   1.430  0.7286  0.3058 -0.0142
  105SOL    HW1  907   1.846   4.803   1.515 -1.3677 -2.0925  0.4783
  105SOL    HW2  908   1.966   4.783   1.425  0.4135  3.1874  1.3515
  106SOL     OW  909   0.043   2.468   1.037 -0.3308  0.6596  0.2543
  106SOL    HW1  910   0.114   2.483   0.975  0.0481 -1.1021  0.2293
  106SOL    HW2  911  -0.033   2.514   0.999  0.7221  2.4984  0.2503
  107SOL     OW  912   0.336   1.370   3.089  0.3341 -0.5263  0.3681
  107SOL    HW1  913   0.388   1.309   3.038 -0.6385 -0.7882 -0.3190
  107SOL    HW2  914   0.246   1.350   3.067 -0.0129  1.0200  0.2842
  108SOL     OW  915   0.471   0.310   1.326 -0.4932 -0.0273  0.0335
  108SOL    HW1  916   0.498   0.401   1.313  0.0329  0.0839  1.6730
  108SOL    HW2  917   0.376   0.312   1.317 -0.6282  0.9653  1.3791
  109SOL     OW  918   2.138   1.819   3.545 -0.1159 -0.2195 -0.1127
  109SOL    HW1  919   2.053   1.788   3.577 -0.9692  0.4296 -1.6400
  109SOL    HW2  920   2.126   1.913   3.534  1.0577 -0.0061  0.3580
  110SOL     OW  921   1.714   0.890   1.291  0.2081 -0.0846 -0.0273
  110SOL    HW1  922   1.766   0.811   1.275  1.1229  0.1326  1.6106
  110SOL    HW2  923   1.729   0.910   1.383 -1.0434  1.2779 -0.0824
  111SOL     OW  924   0.696   0.613   3.308 -0.2075  0.4941 -0.3014
  111SOL    HW1  925   0.725   0.556   3.378  0.1443  0.4896 -0.4503
  111SOL    HW2  926   0.698   0.701   3.346 -0.0579  0.4872 -0.2930
  112SOL     OW  927   0.927   1.116   0.986  0.2590 -0.2933  0.0198
  112SOL    HW1  928   0.932   1.180   0.915 -0.5673 -1.9517 -1.6289
  112SOL    HW2  929   1.018   1.091   1.002  0.5338  0.8565  0.2683
  113SOL     OW  930   0.470   0.536   2.852 -0.7761 -0.0981 -0.1094
  113SOL    HW1  931   0.528   0.567   2.922 -1.4280  0.6572  0.1086
  113SOL    HW2  932   0.525   0.537   2.773 -0.6184  1.1278 -0.0102
  114SOL     OW  933   0.529   1.744   2.953 -0.7007 -0.2907  0.0145
  114SOL    HW1  934   0.548   1.660   2.910  0.0943 -0.6290  0.9854
  114SOL    HW2  935   0.450   1.727   3.004 -0.4676 -0.4998  0.3123
  115SOL     OW  936   0.654   4.807   2.790  0.2302  0.2824 -0.4756
  115SOL    HW1  937   0.675   4.795   2.882  1.1119 -2.5305 -0.9428
  115SOL    HW2  938   0.728   4.767   2.743 -0.8751  0.3305 -2.3790
  116SOL     OW  939   0.412   0.375   1.838 -0.2380 -0.1627 -0.5822
  116SOL    HW1  940   0.357   0.446   1.804  0.5087  0.4919 -0.4552
  116SOL    HW2  941   0.353   0.321   1.890 -0.3641  1.7528  1.4030
  117SOL     OW  942   6.545   1.882   0.706  0.3852  0.0835 -0.5375
  117SOL    HW1  943   6.529   1.804   0.759  0.0747  1.1329  0.9641
  117SOL    HW2  944   6.561   1.848   0.618  1.4037 -1.7566  0.2943
  118SOL     OW  945   1.053   0.285   1.180  0.0207 -0.3569 -0.7264
  118SOL    HW1  946   1.078   0.286   1.088  2.4842  0.3463 -0.1091
  118SOL    HW2  947   1.134   0.303   1.228 -1.6915  2.3338  1.4758
  119SOL     OW  948   0.209   0.185   0.349 -0.0332  0.1245  0.2307
  119SOL    HW1  949   0.220   0.270   0.308 -0.4499 -0.1406 -0.4460
  119SOL    HW2  950   0.240   0.197   0.439 -1.4553  1.3836  0.5979
  120SOL     OW  951   0.216   1.228   2.836  0.0487 -0.5506  0.7512
  120SOL    HW1  952   0.155   1.166   2.876 -0.1109 -1.8321 -1.3221
  120SOL    HW2  953   0.261   1.178   2.768  1.0572  1.2083  0.0332
  121SOL     OW  954   0.195   0.675   1.360 -0.2895  0.2454  0.5338
  121SOL    HW1  955   0.166   0.658   1.270  0.0207  1.4766  0.1823
  121SOL    HW2  956   0.162   0.762   1.380 -0.5529 -0.1086  1.7138
  122SOL     OW  957   0.582   1.428   2.107  0.1055  0.9437 -0.5110
  122SOL    HW1  958   0.503   1.457   2.153  0.0709  0.6167 -0.3658
  122SOL    HW2  959   0.651   1.432   2.173  0.1018  0.6973 -0.4931
  123SOL     OW  960   1.628   0.709   2.119  0.2311  0.0853  0.6284
  123SOL    HW1  961   1.693   0.673   2.059 -0.7199  0.6018 -0.7568
  123SOL    HW2  962   1.607   0.795   2.083 -0.6003  0.2804  1.5316
  124SOL     OW  963   1.072   0.276   2.822  0.2852 -0.1740 -0.5875
  124SOL    HW1  964   1.154   0.235   2.795  1.1389  0.1039  1.3649
  124SOL    HW2  965   1.079   0.367   2.793 -0.0639 -0.5270 -1.8291
  125SOL     OW  966   0.216   1.367   0.245  1.0268 -0.0039 -0.5180
  125SOL    HW1  967   0.187   1.281   0.213 -1.9396 -0.2421  2.2452
  125SOL    HW2  968   0.168   1.430   0.193 -2.1982 -0.3375  1.7597
  126SOL     OW  969   0.276   0.006   1.558  0.3109  0.0512  0.2599
  126SOL    HW1  970   0.234   0.087   1.588 -0.7718 -0.4779  0.2353
  126SOL    HW2  971   0.208  -0.061   1.569  0.1920 -0.3661 -2.3556
  127SOL     OW  972   7.012   1.381   0.190  0.7633  0.2252  0.3833
  127SOL    HW1  973   7.100   1.417   0.179  0.2202  2.0668  1.5575
  127SOL    HW2  974   6.954   1.443   0.145  0.0334 -0.9788 -0.4085
  128SOL     OW  975   2.147   2.134   1.552  0.8116 -0.1160 -0.4659
  128SOL    HW1  976   2.151   2.230   1.556 -2.6299  0.1043  1.1682
  128SOL    HW2  977   2.180   2.106   1.638  1.8653 -0.4724 -0.9628
  129SOL     OW  978   0.104   0.678   1.117  0.4298  0.1331 -0.2780
  129SOL    HW1  979   0.097   0.759   1.066 -0.4289  0.4081  0.2518
  129SOL    HW2  980   0.034   0.622   1.083  0.1588  0.1333  0.2664
  130SOL     OW  981   1.783   5.029   0.241  0.1313  0.6902  0.0290
  130SOL    HW1  982   1.871   5.060   0.262  0.2252 -0.8271  2.1661
  130SOL    HW2  983   1.731   5.052   0.318 -0.6334 -1.0896  0.0818
  131SOL     OW  984   1.984   0.863   3.165 -0.1062  0.2758  0.2750
  131SOL    HW1  985   1.963   0.771   3.180  0.2163  0.0712 -0.4987
  131SOL    HW2  986   1.899   0.905   3.154 -0.2512  0.0631  0.5665
  132SOL     OW  987   0.303   0.409   0.848 -0.4260 -0.2124  0.2276
  132SOL    HW1  988   0.370   0.457   0.897 -0.6382 -0.5339  0.8567
  132SOL    HW2  989   0.313   0.318   0.877 -1.1772 -0.2520  0.4001
  133SOL     OW  990   0.073   0.822   0.875 -0.2481 -0.3285 -0.2629
  133SOL    HW1  991   0.056   0.758   0.806  0.2700 -1.6572  0.7680
  133SOL    HW2  992   0.019   0.898   0.853 -0.5380 -0.9501 -1.7825
  134SOL     OW  993   0.596   1.244   3.405 -0.2184 -0.1440  0.2601
  134SOL    HW1  994   0.674   1.190   3.391  0.6462  0.8232  1.1843
  134SOL    HW2  995   0.528   1.201   3.352  0.7238 -1.4551  0.0462
  135SOL     OW  996   0.500   4.842   2.548  0.3853  0.3867  0.5583
  135SOL    HW1  997   0.500   4.938   2.546  1.5697  0.4215 -2.6665
  135SOL    HW2  998   0.561   4.819   2.619  2.4562  2.0932 -0.5796
  136SOL     OW  999   0.741   5.446   0.171  0.1471 -0.1293 -0.1295
  136SOL    HW1 1000   0.675   5.479   0.232 -1.3387  1.2215 -2.3142
  136SOL    HW2 1001   0.734   5.350   0.178  0.2162 -0.0298  1.9243
  137SOL     OW 1002   1.310   0.398   3.127 -0.4651  0.6266  0.3403
  137SOL    HW1 1003   1.232   0.388   3.182  0.1142 -0.3398  1.0128
  137SOL    HW2 1004   1.280   0.449   3.052 -1.3068  1.8639  1.4803
  138SOL     OW 1005   6.565   2.142   0.742 -0.3739 -0.1756  0.4510
  138SOL    HW1 1006   6.606   2.160   0.657 -0.6826  0.7494  0.4899
  138SOL    HW2 1007   6.569   2.047   0.751 -0.2822 -0.2761 -0.5714
  139SOL     OW 1008   1.368   1.479   1.974  0.0516 -0.0624 -0.1332
  139SOL    HW1 1009   1.373   1.415   2.045  0.9941  0.5060  0.3212
  139SOL    HW2 1010   1.421   1.440   1.904 -1.6069 -1.0491 -0.8967
  140SOL     OW 1011   1.051   1.392   2.883 -0.4185 -0.2751  0.2566
  140SOL    HW1 1012   1.139   1.369   2.912  0.5919  1.2904 -1.3863
  140SOL    HW2 1013   0.998   1.389   2.964  1.2413 -0.6527  1.3800
  141SOL     OW 1014   0.870   1.099   3.199  0.1759  0.3070  0.0952
  141SOL    HW1 1015   0.941   1.036   3.213  0.5464  0.6062 -0.3881
  141SOL    HW2 1016   0.916   1.182   3.181 -0.2076 -0.0716 -3.1486
  142SOL     OW 1017   6.768   5.084   1.098 -0.0821  0.0331  0.0436
  142SOL    HW1 1018   6.823   5.141   1.152 -0.8116  2.2676 -1.4382
  142SOL    HW2 1019   6.814   5.077   1.015 -0.3357 -1.0282 -0.0180
  143SOL     OW 1020   1.125   0.396   2.385 -0.2137  0.1179 -0.1515
  143SOL    HW1 1021   1.130   0.468   2.322  1.7334 -2.4033 -3.2076
  143SOL    HW2 1022   1.133   0.438   2.471  1.1258  3.5032 -1.7411
  144SOL     OW 1023   1.138   0.682   0.720 -0.0586 -0.3359 -0.4788
  144SOL    HW1 1024   1.196   0.757   0.729  0.2763 -0.5551 -0.7842
  144SOL    HW2 1025   1.119   0.656   0.810  1.5847 -1.2298 -0.3442
  145SOL     OW 1026   1.887   1.770   0.074 -0.4076 -0.0061 -0.6235
  145SOL    HW1 1027   1.861   1.680   0.055 -0.6962  0.4318 -2.5598
  145SOL    HW2 1028   1.840   1.793   0.154 -0.4669 -1.4890 -0.2009
  146SOL     OW 1029   0.750   1.902   0.796 -0.0485 -0.3558 -0.1844
  146SOL    HW1 1030   0.689   1.938   0.732  0.3108  0.2388 -0.2054
  146SOL    HW2 1031   0.700   1.835   0.842 -0.3162 -0.7749 -1.0714
  147SOL     OW 1032   1.588   5.126   0.946 -0.2160  0.3864 -0.1965
  147SOL    HW1 1033   1.673   5.155   0.913 -0.4297  1.3790  0.0892
  147SOL    HW2 1034   1.599   5.125   1.041  0.1278 -1.6068 -0.2249
  148SOL     OW 1035   1.048   1.953   1.180 -0.1492 -0.0233  0.4335
  148SOL    HW1 1036   1.000   1.893   1.237 -0.2357 -0.4656 -0.0893
  148SOL    HW2 1037   1.006   1.943   1.094 -0.4227  1.0888  0.4214
  149SOL     OW 1038   2.173   0.523   3.428  0.2724  0.0226  0.8043
  149SOL    HW1 1039   2.170   0.436   3.388 -2.9076  1.3216 -2.2215
  149SOL    HW2 1040   2.221   0.510   3.510  4.6248 -3.4946 -1.8682
  150SOL     OW 1041   2.077   0.360   1.345 -0.2984 -0.9498 -0.0597
  150SOL    HW1 1042   2.151   0.315   1.304  0.0817 -0.1037 -0.3316
  150SOL    HW2 1043   2.110   0.390   1.429 -0.9730 -2.3724  0.7464
  151SOL     OW 1044   1.121   2.113   1.819 -0.1364 -0.1819 -0.2430
  151SOL    HW1 1045   1.075   2.183   1.866 -0.8303  0.6888 -2.1140
  151SOL    HW2 1046   1.054   2.075   1.762  1.3392  1.1101 -3.0415
  152SOL     OW 1047   1.855   0.047   1.950  0.2706 -0.2433  0.7959
  152SOL    HW1 1048   1.833  -0.026   1.891 -0.6931 -0.4593  1.4079
  152SOL    HW2 1049   1.802   0.031   2.028 -0.7731  1.6713  0.5425
  153SOL     OW 1050   0.880   1.083   2.155 -0.2935  0.5007 -0.1262
  153SOL    HW1 1051   0.786   1.073   2.172  0.1007 -0.1707  1.9963
  153SOL    HW2 1052   0.901   1.169   2.193  0.2328 -0.0810  0.9360
  154SOL     OW 1053   0.992   1.522   0.684  0.4725 -0.2791  0.2955
  154SOL    HW1 1054   1.031   1.603   0.649 -0.0648 -0.0710  0.1635
  154SOL    HW2 1055   0.898   1.535   0.673  0.2139  0.1615  2.6043
  155SOL     OW 1056   7.382   0.735   1.341  0.2825  0.1976 -0.0936
  155SOL    HW1 1057   7.366   0.706   1.251  0.6243 -0.9752  0.1990
  155SOL    HW2 1058   7.447   0.805   1.333 -0.6663  1.0111 -0.8433
  156SOL     OW 1059   0.710   2.153   0.475  0.1015  0.6158 -0.5823
  156SOL    HW1 1060   0.778   2.086   0.476  0.7644  1.2607  0.7809
  156SOL    HW2 1061   0.689   2.167   0.567 -1.1454  1.1713 -0.9319
  157SOL     OW 1062   1.180   5.205   0.452  0.3834 -1.0685 -0.1490
  157SOL    HW1 1063   1.126   5.203   0.530  0.9232 -2.2659  0.2160
  157SOL    HW2 1064   1.234   5.284   0.462 -0.8783 -0.1703 -0.2600
  158SOL     OW 1065   2.087   1.395   2.855  0.0583  0.7379  0.0286
  158SOL    HW1 1066   2.132   1.480   2.855  1.5580 -0.0290  0.3801
  158SOL    HW2 1067   2.064   1.380   2.947  0.3808  0.4600  0.0629
  159SOL     OW 1068   0.887   3.399   1.322 -0.1892  0.3996  0.0863
  159SOL    HW1 1069   0.970   3.363   1.354 -0.9276  0.3732  2.1521
  159SOL    HW2 1070   0.907   3.489   1.297  0.1872  0.9510  2.1804
  160SOL     OW 1071   6.949   1.980   0.522  0.0240  0.1017 -0.0551
  160SOL    HW1 1072   7.045   1.978   0.528  0.1969 -0.7741 -2.2272
  160SOL    HW2 1073   6.923   2.054   0.577  1.8794 -0.0397  1.1079
  161SOL     OW 1074   0.003   1.438   2.530 -0.0437  1.0478  0.4681
  161SOL    HW1 1075   0.012   1.527   2.495 -0.1558  1.4708  1.4982
  161SOL    HW2 1076   0.073   1.429   2.593 -0.0530  0.4048  0.3981
  162SOL     OW 1077   6.794   1.978   1.220  0.0301 -0.2766 -0.0757
  162SOL    HW1 1078   6.775   1.930   1.139 -1.1277  1.6660 -1.0243
  162SOL    HW2 1079   6.708   1.997   1.257  0.5247 -0.2567  1.0999
  163SOL     OW 1080   0.979   2.453   0.868 -0.2989  0.0585  0.0612
  163SOL    HW1 1081   1.043   2.389   0.899 -0.2265  0.3428  0.5053
  163SOL    HW2 1082   0.931   2.480   0.947  0.5383  1.5156  0.1105
  164SOL     OW 1083   2.734   1.732   2.181 -0.4506  0.2907 -0.1889
  164SOL    HW1 1084   2.803   1.783   2.139  1.7560 -1.9355  0.4890
  164SOL    HW2 1085   2.711   1.782   2.259  0.3641  1.0996 -0.4550
  165SOL     OW 1086   2.118   0.375   0.914  0.1521 -0.0736  0.0221
  165SOL    HW1 1087   2.060   0.395   0.987 -0.4767 -0.2335 -0.4260
  165SOL    HW2 1088   2.157   0.459   0.890 -0.3017  0.1261 -0.0163
  166SOL     OW 1089   0.673   0.378   0.596  1.0167  0.0664  0.3766
  166SOL    HW1 1090   0.742   0.425   0.642  0.2211  0.7540  0.8891
  166SOL    HW2 1091   0.652   0.304   0.653 -0.6252  1.4363  1.6499
  167SOL     OW 1092   1.890   1.486   0.715 -0.0478 -0.3543 -0.1868
  167SOL    HW1 1093   1.868   1.578   0.731  1.1671  0.1107 -1.0259
  167SOL    HW2 1094   1.846   1.465   0.632 -1.6735 -1.0548  0.8051
  168SOL     OW 1095   1.015   1.308   1.537  0.1013  0.1788  0.0514
  168SOL    HW1 1096   0.967   1.260   1.469  0.5355 -0.4689  0.1906
  168SOL    HW2 1097   1.003   1.255   1.616  1.9525 -0.6105 -0.1478
  169SOL     OW 1098   1.063   1.898   0.234  0.1090 -0.3890 -0.2795
  169SOL    HW1 1099   1.109   1.815   0.231  2.2751  0.7306  0.1706
  169SOL    HW2 1100   1.050   1.922   0.142 -0.2415 -1.0405 -0.4077
  170SOL     OW 1101   1.470   1.195   2.681 -0.1768  0.1639  0.7309
  170SOL    HW1 1102   1.548   1.196   2.626  0.6076  1.8863  1.7807
  170SOL    HW2 1103   1.496   1.243   2.760 -2.3421  0.9635  1.0323
  171SOL     OW 1104   0.453   1.672   0.507 -0.0317  0.0998  0.2710
  171SOL    HW1 1105   0.362   1.687   0.532 -0.3144 -0.4073 -0.4239
  171SOL    HW2 1106   0.450   1.655   0.413  0.4695 -2.3892  0.6482
  172SOL     OW 1107   1.789   2.060   1.569  1.0986 -0.1332 -0.0319
  172SOL    HW1 1108   1.724   2.111   1.521  0.6220 -0.4108  0.3175
  172SOL    HW2 1109   1.791   2.100   1.656 -0.9950 -2.1348  1.0210
  173SOL     OW 1110   2.155   1.350   3.521  0.7280 -0.5189 -0.5119
  173SOL    HW1 1111   2.182   1.283   3.584  0.6869 -0.6061 -0.5864
  173SOL    HW2 1112   2.137   1.301   3.441 -2.4532 -0.8669  0.2952
  174SOL     OW 1113   1.468   5.007   1.209 -0.0387 -0.4843 -0.1105
  174SOL    HW1 1114   1.502   5.061   1.281  0.1624 -0.0196 -0.5550
  174SOL    HW2 1115   1.405   4.949   1.252 -0.7312  0.5225  0.2822
  175SOL     OW 1116   0.003   1.741   2.453 -0.0026 -0.3404 -0.0504
  175SOL    HW1 1117  -0.042   1.758   2.536 -1.2862  2.9010 -1.2294
  175SOL    HW2 1118   0.096   1.752   2.473 -0.3527  1.4978  0.8436
  176SOL     OW 1119   0.754   0.655   2.063  0.0427 -0.1549  0.6628
  176SOL    HW1 1120   0.690   0.584   2.051  0.4439 -0.3101 -0.7455
  176SOL    HW2 1121   0.817   0.619   2.126  0.4416 -1.2222 -0.3011
  177SOL     OW 1122   0.398   1.639   0.228 -0.5628 -0.7313 -0.1484
  177SOL    HW1 1123   0.401   1.560   0.174  0.6633  0.7490 -2.4087
  177SOL    HW2 1124   0.318   1.684   0.201 -1.3007 -1.1609  1.1916
  178SOL     OW 1125   1.866   1.050   1.774 -0.7770  0.1945  0.0207
  178SOL    HW1 1126   1.862   1.139   1.809 -1.2213  0.4335 -0.6162
  178SOL    HW2 1127   1.959   1.036   1.757 -0.5559  0.0965  1.2074
  179SOL     OW 1128   1.328   0.345   1.740 -0.1237 -0.6110  0.5390
  179SOL    HW1 1129   1.260   0.400   1.779  1.5941  0.1283  2.7220
  179SOL    HW2 1130   1.284   0.262   1.721 -2.0160  0.4144  0.2143
  180SOL     OW 1131   7.357   1.668   2.238  0.3576 -0.0428  0.0643
  180SOL    HW1 1132   7.293   1.738   2.250 -2.0497 -1.8788 -1.2753
  180SOL    HW2 1133   7.430   1.692   2.296 -1.4821  2.1803  1.6288
  181SOL     OW 1134   0.465   4.993   1.430 -0.6361  0.0569 -0.3407
  181SOL    HW1 1135   0.434   4.933   1.498 -0.1419  0.9013  0.6609
  181SOL    HW2 1136   0.430   4.957   1.348 -2.0386 -0.4666  0.4561
  182SOL     OW 1137   0.464   1.078   2.997  0.0473  0.2669 -0.2305
  182SOL    HW1 1138   0.513   1.151   2.959 -1.1290 -0.3086 -3.2072
  182SOL    HW2 1139   0.528   1.008   3.008  0.7195  0.9548  0.2353
  183SOL     OW 1140   1.698   5.407   3.190  0.7432  0.7232 -0.1970
  183SOL    HW1 1141   1.657   5.465   3.126 -0.8220 -0.3365 -0.2067
  183SOL    HW2 1142   1.630   5.344   3.213  2.4743 -1.4073 -0.5003
  184SOL     OW 1143   0.437   0.689   0.620  0.1883  0.4104  0.1906
  184SOL    HW1 1144   0.418   0.609   0.669 -0.0608  0.6185  0.4372
  184SOL    HW2 1145   0.503   0.734   0.672  0.7494  0.0931 -0.2388
  185SOL     OW 1146   0.589   1.087   1.328 -0.2169 -0.2232  0.0245
  185SOL    HW1 1147   0.571   1.027   1.255 -1.4998 -0.1917  0.2938
  185SOL    HW2 1148   0.530   1.161   1.313  0.9198  0.7081  0.0318
  186SOL     OW 1149   0.136   5.418   1.860 -0.6653 -0.3435 -0.1143
  186SOL    HW1 1150   0.130   5.481   1.789 -1.0281 -1.5419 -1.1780
  186SOL    HW2 1151   0.054   5.369   1.856  0.3029 -2.0247 -0.4259
  187SOL     OW 1152   2.824   0.248   2.758 -0.2625  0.1180 -0.3109
  187SOL    HW1 1153   2.825   0.154   2.744  1.8286 -0.0478  0.5114
  187SOL    HW2 1154   2.875   0.261   2.838 -0.2182  1.9674 -0.5885
  188SOL     OW 1155   1.238   1.011   2.016  0.2710 -0.2494 -0.4444
  188SOL    HW1 1156   1.166   0.955   2.045 -0.5916  1.1505  0.2521
  188SOL    HW2 1157   1.202   1.100   2.018  2.0827  0.5263  0.1526
  189SOL     OW 1158   1.894   1.776   2.072 -0.2777  0.1391 -0.0103
  189SOL    HW1 1159   1.958   1.720   2.116 -0.9503 -0.4580  0.2279
  189SOL    HW2 1160   1.826   1.716   2.043  0.7988  0.2708 -3.1869
  190SOL     OW 1161   2.083   0.692   2.195  0.1696  0.5261 -0.1256
  190SOL    HW1 1162   2.056   0.705   2.286 -2.1506  0.8266 -0.7923
  190SOL    HW2 1163   2.064   0.775   2.152 -3.4344 -0.9815 -1.8562
  191SOL     OW 1164   2.149   2.844   0.185  0.1708  0.3491  0.1906
  191SOL    HW1 1165   2.089   2.910   0.150 -0.5001 -1.0453 -1.4370
  191SOL    HW2 1166   2.226   2.850   0.128  0.5777  0.4830  0.7494
  192SOL     OW 1167   1.436   0.543   2.187  0.0451  0.0068  0.3161
  192SOL    HW1 1168   1.459   0.462   2.141 -1.0676 -0.4084  0.4619
  192SOL    HW2 1169   1.508   0.603   2.167  1.5620 -1.4114  1.2605
  193SOL     OW 1170   0.122   0.191   2.814  0.2790  0.5476 -0.4961
  193SOL    HW1 1171   0.099   0.101   2.837  0.5067  0.7777  0.7222
  193SOL    HW2 1172   0.195   0.212   2.871 -0.8451  2.0623  0.4639
  194SOL     OW 1173   0.818   2.763   0.598  0.4496  0.1379  0.1705
  194SOL    HW1 1174   0.840   2.855   0.582 -1.1944  0.2359 -1.9462
  194SOL    HW2 1175   0.893   2.714   0.565  1.5918  0.6658  1.8299
  195SOL     OW 1176   0.615   1.573   1.157 -0.2101  0.1912 -0.3221
  195SOL    HW1 1177   0.680   1.502   1.149 -0.0804  0.0717  1.4625
  195SOL    HW2 1178   0.658   1.638   1.212 -0.9929  0.8857 -0.5244
  196SOL     OW 1179   0.234   1.096   1.551 -0.3441  0.7471 -0.0062
  196SOL    HW1 1180   0.327   1.115   1.539 -0.1828 -0.2284 -0.4237
  196SOL    HW2 1181   0.228   1.054   1.637 -0.1350 -0.6419 -0.6285
  197SOL     OW 1182   1.716   1.350   1.197  0.3798 -0.8791  0.0453
  197SOL    HW1 1183   1.774   1.282   1.163  1.8486  0.8773 -1.1358
  197SOL    HW2 1184   1.774   1.414   1.236 -0.9681 -0.2411  1.0929
  198SOL     OW 1185   2.274   1.635   1.428  0.1769 -0.3425  0.6257
  198SOL    HW1 1186   2.187   1.629   1.467  0.0299  0.1997  0.4012
  198SOL    HW2 1187   2.297   1.728   1.435  1.5724 -0.7548  2.4393
  199SOL     OW 1188   0.048   0.985   1.375  0.5053 -0.2921 -0.2418
  199SOL    HW1 1189   0.116   1.039   1.414  2.3442 -0.5508 -2.8056
  199SOL    HW2 1190   0.030   1.026   1.290 -1.3911 -1.1521 -0.3104
  200SOL     OW 1191   0.256   0.848   0.476 -0.4681  0.5985  0.0686
  200SOL    HW1 1192   0.303   0.834   0.559 -0.2832 -0.1955 -0.1583
  200SOL    HW2 1193   0.325   0.857   0.411 -0.6140 -0.1072 -0.1949
  201SOL     OW 1194   1.978   0.903   0.721  0.4071 -0.1519 -0.1831
  201SOL    HW1 1195   1.929   0.969   0.770  0.5068  0.1235 -0.4557
  201SOL    HW2 1196   1.946   0.910   0.632 -0.1016 -0.9652 -0.0770
  202SOL     OW 1197   2.248   0.066   1.367 -0.0131 -0.0435  0.0221
  202SOL    HW1 1198   2.259  -0.029   1.372  0.1124 -0.0456 -0.2943
  202SOL    HW2 1199   2.337   0.100   1.381 -0.1272  0.0448  0.5709
  203SOL     OW 1200   0.337   5.353   1.078  0.3943  0.2822  0.3591
  203SOL    HW1 1201   0.380   5.302   1.009  0.0296 -0.0917  0.4041
  203SOL    HW2 1202   0.404   5.364   1.145  0.2835 -0.7193  0.6494
  204SOL     OW 1203   1.018   5.302   2.128  0.3104  0.4043 -0.5250
  204SOL    HW1 1204   0.958   5.244   2.080  0.4541  0.9327 -1.3689
  204SOL    HW2 1205   1.015   5.270   2.218 -0.1697 -0.4533 -0.8310
  205SOL     OW 1206   0.153   1.182   3.257 -0.5593 -0.2580 -0.2429
  205SOL    HW1 1207   0.171   1.095   3.222 -2.0464  0.0168 -1.8304
  205SOL    HW2 1208   0.062   1.176   3.287 -0.3074  0.4403  0.6770
  206SOL     OW 1209   6.796   2.210   0.913  0.0912  0.4596  0.0772
  206SOL    HW1 1210   6.718   2.265   0.925  0.9784  1.8543 -0.3363
  206SOL    HW2 1211   6.765   2.121   0.929 -0.6837  1.2954  4.3747
  207SOL     OW 1212   1.863   4.583   0.466  0.5397 -0.2942 -0.4750
  207SOL    HW1 1213   1.791   4.597   0.528  2.1971 -0.4394  1.6057
  207SOL    HW2 1214   1.902   4.670   0.454 -1.2692  0.2308 -3.4173
  208SOL     OW 1215   2.012   5.314   2.333 -0.0749 -0.0983  0.0018
  208SOL    HW1 1216   2.055   5.389   2.292  1.0377 -0.0051  1.2804
  208SOL    HW2 1217   2.076   5.243   2.328 -0.8063 -0.7414 -0.4607
  209SOL     OW 1218   1.360   1.319   1.720  0.1832  0.2260 -0.0579
  209SOL    HW1 1219   1.438   1.314   1.665  0.2896 -0.0277  0.1154
  209SOL    HW2 1220   1.302   1.379   1.673  0.3510  0.1656 -0.3482
  210SOL     OW 1221   6.558   2.944   1.560  0.5561  0.3356  0.4389
  210SOL    HW1 1222   6.565   2.849   1.565 -0.9573  0.1971  0.5235
  210SOL    HW2 1223   6.601   2.976   1.639  2.1111 -0.1884 -0.1587
  211SOL     OW 1224   1.942   0.429   1.630  0.4338 -0.1264  0.3042
  211SOL    HW1 1225   1.978   0.412   1.716 -0.6514 -0.3228  0.7354
  211SOL    HW2 1226   1.865   0.484   1.646  1.9632  2.5321 -0.7763
  212SOL     OW 1227   1.804   1.067   3.155  0.1765  0.3685  0.0786
  212SOL    HW1 1228   1.773   1.147   3.199  0.1857 -0.1993  1.1422
  212SOL    HW2 1229   1.740   1.000   3.179  1.2547 -0.4139  0.8599
  213SOL     OW 1230   2.489   0.760   1.390 -0.1620 -0.4258  0.0474
  213SOL    HW1 1231   2.584   0.751   1.380  0.0467 -0.9626  2.1022
  213SOL    HW2 1232   2.455   0.670   1.381 -0.4301 -0.3043 -0.1828
  214SOL     OW 1233   0.898   0.133   1.818 -0.1478 -0.4127  0.1503
  214SOL    HW1 1234   0.896   0.180   1.735 -3.7461 -0.9779 -0.2663
  214SOL    HW2 1235   0.899   0.040   1.793 -0.7382 -0.5836  0.7131
  215SOL     OW 1236   0.843   1.102   1.443  0.4835 -0.2436  0.8595
  215SOL    HW1 1237   0.824   1.018   1.402  1.0225  0.5678 -1.1339
  215SOL    HW2 1238   0.776   1.162   1.409  0.0689  0.1510  2.2961
  216SOL     OW 1239   6.554   5.210   1.005  0.2494  0.1429 -0.2387
  216SOL    HW1 1240   6.590   5.297   0.992  0.8607 -0.2008 -0.8752
  216SOL    HW2 1241   6.625   5.160   1.045 -0.2007  0.0141  0.4212
  217SOL     OW 1242   0.245   1.555   2.671 -0.1616 -0.3004 -0.0247
  217SOL    HW1 1243   0.324   1.526   2.716  0.2064  0.5735 -0.0822
  217SOL    HW2 1244   0.193   1.597   2.739 -1.5239 -2.6204  0.4522
  218SOL     OW 1245   7.383   4.710   2.958  0.2907 -0.4709 -0.3897
  218SOL    HW1 1246   7.420   4.774   2.898 -0.3419  0.4981  0.2207
  218SOL    HW2 1247   7.325   4.657   2.903 -0.2963  0.4158 -0.6636
  219SOL     OW 1248   1.739   1.947   0.221  0.2561  0.4935  0.6168
  219SOL    HW1 1249   1.708   1.916   0.306 -0.6839  2.0619  0.8777
  219SOL    HW2 1250   1.672   2.009   0.192  1.1059  0.8130 -0.7704
  220SOL     OW 1251   1.677   1.634   1.971  0.0127 -0.1569  0.1760
  220SOL    HW1 1252   1.662   1.545   1.938 -0.3195  0.6626 -2.0296
  220SOL    HW2 1253   1.649   1.691   1.900  1.0249  1.7184  1.2136
  221SOL     OW 1254   0.205   0.289   3.218  0.2742  0.0282  0.1682
  221SOL    HW1 1255   0.255   0.280   3.137  0.2854 -2.7905  0.3759
  221SOL    HW2 1256   0.114   0.277   3.190  0.3078 -1.3506  0.5455
  222SOL     OW 1257   2.911   5.220   3.328 -0.0225  0.2940  0.3776
  222SOL    HW1 1258   2.886   5.301   3.372  3.4800  0.3647  2.5654
  222SOL    HW2 1259   2.829   5.171   3.320 -1.7381  2.7311  1.8121
  223SOL     OW 1260   1.033   1.422   2.614 -0.0884  0.2738  0.3400
  223SOL    HW1 1261   1.038   1.427   2.709 -0.6105  0.6040  0.3559
  223SOL    HW2 1262   1.019   1.512   2.585 -0.7174  0.0780  0.0086
  224SOL     OW 1263   0.167   0.086   2.336 -0.2133  0.0116  0.1171
  224SOL    HW1 1264   0.146   0.029   2.262  1.1494 -0.7359  0.2596
  224SOL    HW2 1265   0.257   0.063   2.359 -0.3050  0.8445  1.4513
  225SOL     OW 1266   7.357   1.236   2.428  0.2349 -0.3786 -0.6555
  225SOL    HW1 1267   7.385   1.150   2.459  1.7132 -0.1842 -1.3717
  225SOL    HW2 1268   7.422   1.297   2.465  0.6948  0.1212 -2.2089
  226SOL     OW 1269   0.349   0.207   2.607  0.1586  0.2652  0.0591
  226SOL    HW1 1270   0.306   0.288   2.634 -1.8362 -0.8081  0.2646
  226SOL    HW2 1271   0.286   0.138   2.627  0.6471 -1.1078 -2.6915
  227SOL     OW 1272   2.248   0.078   2.551 -0.0358  0.1382 -0.0576
  227SOL    HW1 1273   2.253   0.160   2.502  2.9722 -0.6826 -1.4090
  227SOL    HW2 1274   2.243   0.010   2.483  0.8693 -0.8888  0.8505
  228SOL     OW 1275   2.539   1.851   2.949 -0.1782 -0.4065 -0.3459
  228SOL    HW1 1276   2.558   1.828   3.040  1.4953 -0.1712 -0.6008
  228SOL    HW2 1277   2.609   1.911   2.924 -1.9109  1.4196 -1.1039
  229SOL     OW 1278   6.322   0.825   1.942  0.4413 -0.2080  0.4659
  229SOL    HW1 1279   6.344   0.735   1.966  1.0179 -0.0233  0.6506
  229SOL    HW2 1280   6.373   0.842   1.863  0.2765 -0.0687  0.3891
  230SOL     OW 1281   6.878   1.044   2.897  0.2769 -0.7573  0.8866
  230SOL    HW1 1282   6.829   1.007   2.823 -1.9765 -0.9888  2.3814
  230SOL    HW2 1283   6.956   1.081   2.857 -0.3300 -1.7836 -1.4722
  231SOL     OW 1284   6.420   4.776   1.186 -0.2482  0.1636 -0.1983
  231SOL    HW1 1285   6.380   4.862   1.193  0.6400  0.4793  1.4634
  231SOL    HW2 1286   6.346   4.716   1.173 -0.9815  1.0200 -0.0515
  232SOL     OW 1287   1.269   1.064   3.489  0.2490  0.5003  0.3479
  232SOL    HW1 1288   1.363   1.078   3.495 -0.1072  3.6077  0.6189
  232SOL    HW2 1289   1.246   1.090   3.399 -0.2706 -1.0700 -0.0013
  233SOL     OW 1290   0.240   0.617   2.221  0.3107  0.0014 -0.1529
  233SOL    HW1 1291   0.251   0.639   2.313  2.1919 -0.1443 -0.3111
  233SOL    HW2 1292   0.236   0.521   2.220 -2.2862  0.0325 -0.0204
  234SOL     OW 1293   1.780   0.488   3.350 -0.0486 -0.1240  0.0628
  234SOL    HW1 1294   1.702   0.439   3.325 -1.5043  0.8960  2.2589
  234SOL    HW2 1295   1.797   0.462   3.440  1.7053  0.2576 -0.1314
  235SOL     OW 1296   0.795   0.874   1.023  0.0904 -0.5899 -0.3202
  235SOL    HW1 1297   0.835   0.830   1.098 -1.3756  0.3910  1.0974
  235SOL    HW2 1298   0.853   0.949   1.005  0.7629 -1.1598 -0.5853
  236SOL     OW 1299   1.846   2.263   2.196 -0.2146  0.4346 -0.3003
  236SOL    HW1 1300   1.835   2.178   2.153  0.2695  0.7642 -1.1036
  236SOL    HW2 1301   1.794   2.324   2.143 -0.4338  0.6713  0.1795
  237SOL     OW 1302   0.741   1.309   1.050  0.3088  0.6302 -0.1244
  237SOL    HW1 1303   0.665   1.293   0.995  0.6714  1.1633 -0.7826
  237SOL    HW2 1304   0.791   1.227   1.048  1.8234  1.5029 -2.9602
  238SOL     OW 1305   3.254   0.278   3.524 -0.0072  0.4912 -0.0340
  238SOL    HW1 1306   3.247   0.281   3.619 -0.1622 -0.8975  0.0205
  238SOL    HW2 1307   3.176   0.229   3.496 -0.9746  2.4755 -1.0433
  239SOL     OW 1308   1.338   0.554   1.142  0.4995  0.6996 -0.1713
  239SOL    HW1 1309   1.416   0.584   1.097  0.5195  1.1505  0.1612
  239SOL    HW2 1310   1.296   0.634   1.175  1.2156  0.3076  1.8054
  240SOL     OW 1311   0.080   1.967   2.928 -0.0294  0.7101 -0.1814
  240SOL    HW1 1312   0.018   2.039   2.922 -0.0127  0.7685  0.3721
  240SOL    HW2 1313   0.165   2.007   2.907 -0.0391  0.8260 -0.0007
  241SOL     OW 1314   0.501   1.797   1.674  0.0667 -0.1791 -0.5175
  241SOL    HW1 1315   0.534   1.721   1.720 -0.0287 -0.3499 -0.7288
  241SOL    HW2 1316   0.421   1.822   1.721 -1.6215 -2.0418 -2.2092
  242SOL     OW 1317   0.896   0.036   1.167 -0.1357 -0.0654 -0.5291
  242SOL    HW1 1318   0.947  -0.034   1.208 -1.2863 -0.1274  0.8739
  242SOL    HW2 1319   0.946   0.116   1.185  0.5942 -0.3803 -1.1277
  243SOL     OW 1320   7.237   5.246   1.647 -0.3256 -0.1873 -0.1468
  243SOL    HW1 1321   7.324   5.262   1.611 -0.9117  1.9478 -0.7640
  243SOL    HW2 1322   7.243   5.274   1.738 -0.9272  2.4652 -0.8186
  244SOL     OW 1323   0.865   1.596   2.370  0.3599 -0.0087  0.1069
  244SOL    HW1 1324   0.804   1.634   2.306 -0.9680 -2.8958 -0.5089
  244SOL    HW2 1325   0.821   1.606   2.454 -0.3682 -0.8922 -0.1604
  245SOL     OW 1326   1.416   1.291   2.177  0.7789 -0.7622  0.7599
  245SOL    HW1 1327   1.330   1.253   2.162 -0.7016  1.5311  2.7376
  245SOL    HW2 1328   1.465   1.223   2.223  0.0927 -2.1271 -0.4633
  246SOL     OW 1329   1.402   2.664   2.606  0.0116  0.1005  0.0148
  246SOL    HW1 1330   1.392   2.572   2.584  0.1947  0.3151 -1.0360
  246SOL    HW2 1331   1.334   2.709   2.555  0.7641  0.6707 -0.5161
  247SOL     OW 1332   1.552   2.061   1.849 -0.1393 -0.3297  0.0326
  247SOL    HW1 1333   1.539   2.022   1.936  0.9449 -1.1835 -0.1552
  247SOL    HW2 1334   1.639   2.102   1.855  0.0258 -0.5659 -0.7030
  248SOL     OW 1335   1.140   4.506   1.510  0.3759  0.3729  0.3900
  248SOL    HW1 1336   1.102   4.485   1.425 -0.2109 -0.8372  0.9321
  248SOL    HW2 1337   1.224   4.459   1.511  0.3742  0.3731  0.4905
  249SOL     OW 1338   2.073   0.156   2.749 -0.2346  0.0641 -0.3666
  249SOL    HW1 1339   2.075   0.250   2.767  3.1318 -0.3075  2.2632
  249SOL    HW2 1340   2.138   0.143   2.680  0.1881 -0.4114  0.1092
  250SOL     OW 1341   2.235   0.342   2.483 -0.2423 -0.4520 -0.3030
  250SOL    HW1 1342   2.171   0.411   2.502  1.5971  1.8973 -2.0402
  250SOL    HW2 1343   2.225   0.326   2.389  1.2357 -0.5647 -0.4508
  251SOL     OW 1344   0.522   0.670   0.361  0.5282  0.0702 -0.1452
  251SOL    HW1 1345   0.594   0.608   0.352  2.3349  1.8076  1.4220
  251SOL    HW2 1346   0.490   0.657   0.450  1.4576  1.8338  0.4964
  252SOL     OW 1347   1.258   0.731   0.228  0.0746  0.0877 -0.1325
  252SOL    HW1 1348   1.191   0.674   0.266 -1.0493  3.2372  3.1945
  252SOL    HW2 1349   1.332   0.724   0.287  1.0447 -0.0679 -1.3361
  253SOL     OW 1350   1.985   0.278   0.704  0.5193  0.3862  0.0740
  253SOL    HW1 1351   2.049   0.307   0.769  0.7567  0.9309 -0.3833
  253SOL    HW2 1352   1.907   0.256   0.754  0.9400  0.0962  0.6035
  254SOL     OW 1353   2.052   2.393   2.076  0.0597  0.0878  0.0226
  254SOL    HW1 1354   2.012   2.433   1.998  0.6247 -0.5839 -0.6366
  254SOL    HW2 1355   1.978   2.359   2.126 -0.3471  0.9884  0.0409
  255SOL     OW 1356   0.664   0.904   0.426 -0.0698  0.4566  0.1686
  255SOL    HW1 1357   0.684   0.811   0.419  1.0820  0.7054 -0.1320
  255SOL    HW2 1358   0.610   0.923   0.349 -1.4653 -0.2272  0.9576
  256SOL     OW 1359   7.215   2.601   2.329  0.3866 -0.7107 -0.2628
  256SOL    HW1 1360   7.169   2.643   2.402  0.7041  0.1481 -0.5393
  256SOL    HW2 1361   7.211   2.508   2.348  0.8506 -0.4766  1.0835
  257SOL     OW 1362   1.861   5.164   2.020  0.3051  0.2572  0.3614
  257SOL    HW1 1363   1.953   5.141   2.011 -0.1987 -1.6358 -0.4326
  257SOL    HW2 1364   1.836   5.131   2.106 -0.1325 -1.2590 -0.3107
  258SOL     OW 1365   0.663   1.719   2.233  0.6949 -0.1959  0.2330
  258SOL    HW1 1366   0.631   1.765   2.155 -0.0024 -0.6142  0.2629
  258SOL    HW2 1367   0.594   1.732   2.298  0.2230 -1.7427  0.0654
  259SOL     OW 1368   0.734   5.364   2.701  0.1247 -0.4333  0.3114
  259SOL    HW1 1369   0.806   5.418   2.669 -0.2064  0.6547  1.3394
  259SOL    HW2 1370   0.766   5.329   2.784  0.0430 -1.2190  0.0204
  260SOL     OW 1371   1.248   0.962   2.301  1.1720  0.3678 -0.5134
  260SOL    HW1 1372   1.246   0.885   2.244  0.6261  0.0991 -0.1426
  260SOL    HW2 1373   1.158   0.994   2.301  1.3258  0.8107 -0.4012
  261SOL     OW 1374   1.229   2.147   2.480  0.0828 -0.4819 -0.0186
  261SOL    HW1 1375   1.309   2.137   2.532 -1.5311 -1.9133  2.3645
  261SOL    HW2 1376   1.168   2.191   2.538 -1.6952 -1.7770 -0.8284
  262SOL     OW 1377   1.035   0.078   3.392 -0.8814  0.1096 -0.3692
  262SOL    HW1 1378   1.093   0.134   3.444 -1.3986 -0.1775  0.5288
  262SOL    HW2 1379   0.947   0.097   3.424 -1.0714 -1.1861 -0.0508
  263SOL     OW 1380   1.207   0.803   3.501  0.2033 -0.5817 -0.2519
  263SOL    HW1 1381   1.242   0.892   3.495 -2.7743  0.6563 -0.8951
  263SOL    HW2 1382   1.206   0.784   3.595 -1.9310  1.3541  0.1888
  264SOL     OW 1383   1.211   0.106   1.664 -0.4895 -0.0164  0.3219
  264SOL    HW1 1384   1.294   0.091   1.617  0.0895  0.6107  1.1180
  264SOL    HW2 1385   1.210   0.038   1.731 -0.9815 -0.4766 -0.1429
  265SOL     OW 1386   1.791   0.477   2.466 -0.0942  0.5493 -0.4744
  265SOL    HW1 1387   1.792   0.559   2.416  1.1037  0.7400 -0.1577
  265SOL    HW2 1388   1.827   0.500   2.551 -1.3191  0.0339  0.2104
  266SOL     OW 1389   1.043   2.515   2.961 -0.2781 -0.5401 -0.6211
  266SOL    HW1 1390   1.013   2.490   3.048 -0.2483  0.1228 -0.4186
  266SOL    HW2 1391   1.130   2.476   2.954 -1.3094 -2.9045 -1.4057
  267SOL     OW 1392   0.256   0.648   2.478  0.0230  0.1595 -0.2004
  267SOL    HW1 1393   0.299   0.724   2.519  1.8923 -0.7790 -0.3148
  267SOL    HW2 1394   0.232   0.592   2.551 -0.3017  0.3118 -0.1863
  268SOL     OW 1395   1.322   0.218   2.699 -0.1670 -0.5908 -0.1614
  268SOL    HW1 1396   1.412   0.251   2.702 -0.5869  0.7089 -1.1883
  268SOL    HW2 1397   1.315   0.175   2.614 -0.7810  0.1487 -0.4946
  269SOL     OW 1398   1.492   2.345   0.065 -0.1361  0.0580 -0.1609
  269SOL    HW1 1399   1.479   2.282   0.136 -0.9375  0.2549 -0.1213
  269SOL    HW2 1400   1.529   2.293  -0.006  1.3248 -0.0139  0.6081
  270SOL     OW 1401   2.594   4.067   0.501  0.8277 -0.0831  0.3618
  270SOL    HW1 1402   2.527   4.036   0.441  0.2803 -0.6114  1.2277
  270SOL    HW2 1403   2.677   4.038   0.462  0.3889 -1.7684  0.6267
  271SOL     OW 1404   0.887   2.384   2.341  0.0415  0.8644 -0.1158
  271SOL    HW1 1405   0.791   2.381   2.341 -0.0194  1.4993 -1.5800
  271SOL    HW2 1406   0.913   2.356   2.428 -1.3882 -1.7769 -0.4542
  272SOL     OW 1407   0.970   2.048   2.336 -0.0010  0.0572  0.3091
  272SOL    HW1 1408   1.000   2.135   2.309  0.1410 -0.5250 -1.5719
  272SOL    HW2 1409   0.882   2.062   2.369 -0.0377  0.8967 -0.1254
  273SOL     OW 1410   1.760   0.432   1.350  0.7198 -0.3502  0.1445
  273SOL    HW1 1411   1.848   0.396   1.345  0.6874 -0.3726 -0.3540
  273SOL    HW2 1412   1.717   0.382   1.419  0.3925 -1.9025 -1.1257
  274SOL     OW 1413   0.073   5.245   2.545 -0.7639 -0.7792 -0.4745
  274SOL    HW1 1414   0.052   5.173   2.605 -1.5153 -0.4949 -0.3916
  274SOL    HW2 1415   0.133   5.301   2.595 -3.2084  0.7266  0.9465
  275SOL     OW 1416   0.410   0.814   2.648 -0.3164 -0.0457 -0.4285
  275SOL    HW1 1417   0.419   0.741   2.709 -0.2274  1.3677  1.2975
  275SOL    HW2 1418   0.499   0.839   2.626 -0.3454 -0.7735 -1.4714
  276SOL     OW 1419   1.576   5.156   0.370  0.7166 -0.0610 -0.1516
  276SOL    HW1 1420   1.528   5.226   0.414  1.0978  0.1784 -0.1136
  276SOL    HW2 1421   1.530   5.143   0.287 -0.2143 -0.7519  0.4582
  277SOL     OW 1422   0.839   1.914   2.636 -0.3520  0.8552  0.1688
  277SOL    HW1 1423   0.786   1.835   2.648 -0.4171  0.9089  0.2374
  277SOL    HW2 1424   0.793   1.964   2.569 -0.2617  0.7932  0.0590
  278SOL     OW 1425   1.353   2.140   3.314  0.2511  0.5358 -0.5377
  278SOL    HW1 1426   1.337   2.228   3.278 -0.6064  0.6721  0.1536
  278SOL    HW2 1427   1.272   2.092   3.297  0.6614 -0.0831 -0.7754
  279SOL     OW 1428   6.017   4.792   1.163  0.5676 -0.3734 -0.1726
  279SOL    HW1 1429   6.099   4.745   1.149  0.2835 -0.2039 -3.0468
  279SOL    HW2 1430   6.035   4.881   1.134 -0.2823  0.0257  0.4720
  280SOL     OW 1431   1.940   2.064   2.556  0.8100 -0.0142  0.2500
  280SOL    HW1 1432   2.020   2.097   2.516  0.5542 -0.6094 -0.7852
  280SOL    HW2 1433   1.891   2.024   2.484 -0.6893  0.8308  0.7497
  281SOL     OW 1434   6.854   0.478   1.506  0.2183 -0.0332 -0.0445
  281SOL    HW1 1435   6.867   0.468   1.600 -2.4234 -0.1587  0.3756
  281SOL    HW2 1436   6.868   0.391   1.470 -1.2567 -0.5788  0.6230
  282SOL     OW 1437   0.572   1.138   2.101  0.0974 -0.5868 -0.0337
  282SOL    HW1 1438   0.487   1.159   2.062  1.2354  1.3556 -1.6693
  282SOL    HW2 1439   0.594   1.215   2.153  1.1269 -0.8164 -0.1103
  283SOL     OW 1440   0.012   0.072   0.076 -0.7016  0.0921 -0.9045
  283SOL    HW1 1441  -0.032   0.060  -0.007  0.2813  0.3356 -1.4831
  283SOL    HW2 1442   0.017   0.168   0.087 -0.0706  0.0765 -0.9981
  284SOL     OW 1443   0.972   2.285   1.978  0.2758 -0.3603 -0.0085
  284SOL    HW1 1444   1.042   2.257   2.036  1.1126 -1.8574 -1.6296
  284SOL    HW2 1445   0.915   2.340   2.032  3.2915  1.9417  1.0837
  285SOL     OW 1446   1.186   1.802   2.932 -0.7249  0.5641  0.1165
  285SOL    HW1 1447   1.147   1.890   2.938 -0.4052  0.6523  0.9921
  285SOL    HW2 1448   1.247   1.808   2.859 -1.3737  0.8051 -0.4176
  286SOL     OW 1449   1.830   1.904   2.337 -0.1521  0.2881  0.1237
  286SOL    HW1 1450   1.830   1.887   2.242 -2.5141  1.0837 -0.0991
  286SOL    HW2 1451   1.791   1.825   2.375 -1.2906  0.8437  0.1617
  287SOL     OW 1452   0.677   0.196   0.798  0.2539 -0.1423  0.2206
  287SOL    HW1 1453   0.682   0.267   0.861 -0.3743  1.9861 -1.9817
  287SOL    HW2 1454   0.767   0.169   0.785  0.5447  0.5441  0.7487
  288SOL     OW 1455   7.217   1.089   2.210 -0.1436  0.4149 -0.5021
  288SOL    HW1 1456   7.171   1.173   2.203 -0.6393  0.2897  0.8790
  288SOL    HW2 1457   7.297   1.111   2.259 -0.6380 -0.0220  0.5329
  289SOL     OW 1458   0.730   4.928   2.315  0.8938 -0.4251  0.5577
  289SOL    HW1 1459   0.672   5.004   2.314 -0.8512 -1.6736  1.8486
  289SOL    HW2 1460   0.783   4.939   2.394  0.4845 -0.6583  0.8659
  290SOL     OW 1461   1.800   5.144   2.300  0.3708 -0.3234  0.2181
  290SOL    HW1 1462   1.869   5.205   2.326 -0.5959  0.6690  0.5286
  290SOL    HW2 1463   1.791   5.084   2.374 -0.7932  1.0832  1.2759
  291SOL     OW 1464   1.817   4.946   2.552 -0.5339 -0.1600  0.8005
  291SOL    HW1 1465   1.761   4.911   2.483  1.6202 -1.7631 -0.2679
  291SOL    HW2 1466   1.764   4.941   2.631 -1.2241 -3.7923  0.2911
  292SOL     OW 1467   1.153   1.024   1.413 -0.2752 -0.2907  0.0076
  292SOL    HW1 1468   1.208   1.083   1.362 -1.2684 -0.5957 -1.4859
  292SOL    HW2 1469   1.068   1.067   1.417 -0.2620 -0.3506  1.3105
  293SOL     OW 1470   1.167   0.704   2.221 -0.7152 -0.0270 -0.5282
  293SOL    HW1 1471   1.141   0.750   2.141 -1.3226 -0.4388 -0.5821
  293SOL    HW2 1472   1.243   0.651   2.195 -0.2732  0.6202 -0.5660
  294SOL     OW 1473   2.334   0.904   2.455  0.6030  0.3491  0.2517
  294SOL    HW1 1474   2.336   0.860   2.540 -2.9444  0.6581  0.6271
  294SOL    HW2 1475   2.365   0.838   2.393 -1.6890 -1.7411  1.1836
  295SOL     OW 1476   0.374   4.983   1.127 -0.0128  0.0716  0.0786
  295SOL    HW1 1477   0.374   5.024   1.041 -2.6535 -0.6650 -0.3568
  295SOL    HW2 1478   0.389   4.890   1.110  3.8066  0.3409  0.8917
  296SOL     OW 1479   2.319   1.201   1.769  0.3159  0.0872  0.1046
  296SOL    HW1 1480   2.328   1.164   1.681 -2.6039  1.3648 -0.8600
  296SOL    HW2 1481   2.316   1.295   1.755  0.5734  0.3510  1.6906
  297SOL     OW 1482   2.296   5.344   2.358 -0.1947  0.5362 -0.5245
  297SOL    HW1 1483   2.375   5.372   2.312 -0.7396  0.5927 -1.4372
  297SOL    HW2 1484   2.277   5.257   2.322 -0.4692  0.4602 -0.1994
  298SOL     OW 1485   0.535   0.965   0.207  0.5559  0.2477  0.3208
  298SOL    HW1 1486   0.497   0.925   0.128  0.3551  0.9666  0.0405
  298SOL    HW2 1487   0.514   1.058   0.198  0.9998  0.4116  0.9649
  299SOL     OW 1488   1.363   1.963   2.792  0.2335 -0.4519  0.3657
  299SOL    HW1 1489   1.441   1.909   2.783  0.4267 -0.0471 -0.5449
  299SOL    HW2 1490   1.378   2.036   2.731 -0.1728  0.4359  1.2929
  300SOL     OW 1491   0.482   2.527   1.088 -0.4292 -0.1298 -0.6627
  300SOL    HW1 1492   0.550   2.459   1.088  0.1612  0.4270  0.3858
  300SOL    HW2 1493   0.409   2.488   1.040 -0.1658 -1.5689  0.0395
  301SOL     OW 1494   7.412   3.025   2.361  0.5841  0.3186 -0.2738
  301SOL    HW1 1495   7.503   3.045   2.339  0.6952 -0.0593 -0.1688
  301SOL    HW2 1496   7.397   2.938   2.322  0.8448 -0.4685  1.3159
  302SOL     OW 1497   1.310   2.412   2.934  0.3394 -0.0362  0.1387
  302SOL    HW1 1498   1.398   2.448   2.923 -0.2597  1.7581  0.8482
  302SOL    HW2 1499   1.320   2.318   2.917  2.3056  0.1824 -0.1432
  303SOL     OW 1500   2.091   5.320   2.758  1.0586 -0.3245 -0.4438
  303SOL    HW1 1501   2.184   5.299   2.748  0.9318  0.0891 -3.2504
  303SOL    HW2 1502   2.088   5.415   2.769  1.0001 -0.4456  0.6747
  304SOL     OW 1503   1.716   1.207   2.545  0.1483 -0.4001 -0.4484
  304SOL    HW1 1504   1.767   1.273   2.497  1.7414 -2.5527 -1.9680
  304SOL    HW2 1505   1.760   1.199   2.629 -1.5810  2.1427  0.8121
  305SOL     OW 1506   1.095   1.773   2.607  0.6397 -0.1370  0.0798
  305SOL    HW1 1507   1.025   1.824   2.648  1.0877  0.1525  0.4975
  305SOL    HW2 1508   1.128   1.830   2.537  0.7677 -0.0765  0.1878
  306SOL     OW 1509   1.470   4.522   1.149  0.4345  0.5253 -0.1835
  306SOL    HW1 1510   1.483   4.595   1.210  0.8149  0.1633  0.1749
  306SOL    HW2 1511   1.532   4.540   1.078  1.7206 -0.2865  0.6894
  307SOL     OW 1512   0.672   1.363   2.984  0.1888  0.1652 -0.2912
  307SOL    HW1 1513   0.673   1.431   3.052 -1.2214 -0.1403  0.0693
  307SOL    HW2 1514   0.749   1.309   3.003 -0.3342 -0.0846  1.2694
  308SOL     OW 1515   7.326   0.947   0.644 -0.0241  0.3304 -0.1213
  308SOL    HW1 1516   7.264   0.883   0.681 -1.2015  0.4762 -1.7077
  308SOL    HW2 1517   7.346   0.913   0.557  0.3026  1.4819 -0.5141
  309SOL     OW 1518   0.489   0.526   2.061 -0.0401 -0.3307  0.2939
  309SOL    HW1 1519   0.457   0.474   1.987 -0.5799  0.1912  0.1456
  309SOL    HW2 1520   0.410   0.567   2.096  0.5569  1.6886 -0.6057
  310SOL     OW 1521   2.399   0.516   2.654  0.0330 -0.2544  0.1726
  310SOL    HW1 1522   2.375   0.424   2.647 -0.4292 -0.1935  0.9297
  310SOL    HW2 1523   2.441   0.524   2.740  1.1527  0.0107 -0.3732
  311SOL     OW 1524   1.038   2.282   2.645  0.2174  0.2089 -0.4177
  311SOL    HW1 1525   0.993   2.208   2.686 -1.2152  0.0951 -2.1070
  311SOL    HW2 1526   0.990   2.359   2.675 -0.1526  0.2066 -0.9868
  312SOL     OW 1527   1.455   1.413   1.219  0.1269  0.2539 -0.8574
  312SOL    HW1 1528   1.458   1.474   1.293 -0.8328  0.2108 -0.7690
  312SOL    HW2 1529   1.546   1.389   1.205  0.2453 -0.7339  1.1515
  313SOL     OW 1530   0.728   0.269   2.557  0.0496  0.3912 -0.1957
  313SOL    HW1 1531   0.648   0.218   2.545  0.5676 -0.2861 -0.9161
  313SOL    HW2 1532   0.761   0.283   2.468  1.7295 -0.9965  0.1483
  314SOL     OW 1533   0.681   2.079   2.427  0.1895  0.3043  0.1886
  314SOL    HW1 1534   0.608   2.058   2.368  0.3343  0.6292 -0.1076
  314SOL    HW2 1535   0.652   2.158   2.473  1.4635  2.1473 -1.9440
  315SOL     OW 1536   1.732   0.629   0.130 -0.1868 -0.8254 -0.2864
  315SOL    HW1 1537   1.735   0.544   0.174  0.7245 -1.2898 -1.2147
  315SOL    HW2 1538   1.647   0.629   0.085  1.0143 -2.6048 -2.8171
  316SOL     OW 1539   0.508   0.150   3.126  0.6488  0.3300 -0.0454
  316SOL    HW1 1540   0.488   0.155   3.033 -1.5005  1.1914  0.4216
  316SOL    HW2 1541   0.573   0.220   3.140  0.4505  0.6674 -0.7635
  317SOL     OW 1542   0.902   2.059   2.848 -0.1566 -0.0297  0.0469
  317SOL    HW1 1543   0.877   2.013   2.768 -0.5569 -0.3295  0.3397
  317SOL    HW2 1544   0.911   1.989   2.914 -0.0911  0.2415  0.3274
  318SOL     OW 1545   2.425   4.913   2.132  0.2083 -0.3835 -0.5017
  318SOL    HW1 1546   2.470   4.858   2.068  2.5208 -0.8735  1.3832
  318SOL    HW2 1547   2.427   4.861   2.213 -1.1329  0.8556  0.3820
  319SOL     OW 1548   7.470   4.805   2.679  0.5341  0.1587 -0.9488
  319SOL    HW1 1549   7.547   4.749   2.677 -2.6856 -4.8566 -1.4255
  319SOL    HW2 1550   7.441   4.810   2.588  1.0670  3.5710 -1.0750
  320SOL     OW 1551   0.269   2.019   1.161 -0.5922 -0.6503  0.8641
  320SOL    HW1 1552   0.345   1.986   1.209  1.9496  0.8729 -1.7727
  320SOL    HW2 1553   0.285   2.113   1.151 -3.0095 -0.1970  0.4302
  321SOL     OW 1554   1.587   2.115   3.468  0.1829  0.4862  0.7152
  321SOL    HW1 1555   1.660   2.069   3.429 -0.3650  0.2615 -0.0719
  321SOL    HW2 1556   1.529   2.135   3.395 -1.2277 -0.5763  1.4864
  322SOL     OW 1557   0.598   5.170   3.433 -0.4868  0.5641  0.1780
  322SOL    HW1 1558   0.588   5.265   3.430 -1.1965  0.5600  1.6187
  322SOL    HW2 1559   0.509   5.136   3.442 -0.2567 -0.2537 -0.5055
  323SOL     OW 1560   1.823   0.007   2.492 -0.5538  0.2862  0.1841
  323SOL    HW1 1561   1.862   0.074   2.436  0.4929  1.4308  2.1701
  323SOL    HW2 1562   1.874  -0.072   2.475 -0.1614  0.6489 -0.3486
  324SOL     OW 1563   1.413   0.812   2.495 -0.1682 -0.0788 -0.2437
  324SOL    HW1 1564   1.386   0.851   2.578 -1.0136 -0.4659 -0.3300
  324SOL    HW2 1565   1.371   0.866   2.428  0.6453  0.3345 -0.4396
  325SOL     OW 1566   1.493   1.574   0.261 -0.4925 -0.4721 -0.3979
  325SOL    HW1 1567   1.576   1.586   0.308  0.3784 -1.2652 -1.6572
  325SOL    HW2 1568   1.468   1.483   0.280 -0.8435 -0.3726 -0.3817
  326SOL     OW 1569   0.158   4.346   1.049 -0.5363  0.0496  0.2819
  326SOL    HW1 1570   0.083   4.356   0.991 -2.0249  0.7150  2.2111
  326SOL    HW2 1571   0.120   4.320   1.133  1.6967 -2.9249  0.5012
  327SOL     OW 1572   0.869   0.541   2.290 -0.1448 -0.2293  0.2921
  327SOL    HW1 1573   0.923   0.603   2.340  1.0054  0.1540 -1.3407
  327SOL    HW2 1574   0.863   0.464   2.346  1.2868  0.0979  0.9481
  328SOL     OW 1575   7.431   3.555   1.358 -0.1775 -0.3646 -0.0781
  328SOL    HW1 1576   7.412   3.571   1.266 -1.2396 -0.7587  0.0571
  328SOL    HW2 1577   7.525   3.571   1.367 -0.2508  0.6611 -1.0118
  329SOL     OW 1578   6.609   2.346   1.470  0.2594  0.4353  0.2970
  329SOL    HW1 1579   6.671   2.384   1.409  0.3163 -0.1226  0.0063
  329SOL    HW2 1580   6.641   2.372   1.556  2.3295 -1.8845  0.3241
  330SOL     OW 1581   1.036   5.253   0.961  0.7212  0.5570 -0.1903
  330SOL    HW1 1582   0.997   5.269   1.048  1.2366  1.7558 -0.1640
  330SOL    HW2 1583   1.130   5.265   0.975  0.9081 -0.3167 -0.6919
  331SOL     OW 1584   0.535   5.345   2.511  0.1645  0.1927 -0.1347
  331SOL    HW1 1585   0.612   5.331   2.567 -0.3676 -1.4037  0.2499
  331SOL    HW2 1586   0.561   5.416   2.452  2.7147 -1.5705 -1.3428
  332SOL     OW 1587   0.361   1.470   2.253 -0.0198  0.2186 -0.0118
  332SOL    HW1 1588   0.301   1.396   2.260 -0.2401  0.2744 -1.1050
  332SOL    HW2 1589   0.324   1.524   2.183  2.2274 -0.6607 -2.0108
  333SOL     OW 1590   0.960   2.759   2.582  0.2139 -0.2797  0.0900
  333SOL    HW1 1591   0.944   2.826   2.516 -1.1900 -0.7966 -0.1309
  333SOL    HW2 1592   1.044   2.784   2.622  0.0280  1.2453 -0.4045
  334SOL     OW 1593   1.286   2.438   2.540 -0.3845  0.2470  0.4967
  334SOL    HW1 1594   1.260   2.451   2.449  0.7820  0.3764  0.1770
  334SOL    HW2 1595   1.211   2.393   2.579 -1.0513  0.5281 -0.4243
  335SOL     OW 1596   1.307   0.168   2.376  0.1610 -0.4313 -0.3182
  335SOL    HW1 1597   1.300   0.260   2.351 -0.1020  0.6033  3.0901
  335SOL    HW2 1598   1.217   0.139   2.391  0.3488 -0.6617  0.4147
  336SOL     OW 1599   0.651   0.734   2.385 -0.3668 -0.0894  0.3533
  336SOL    HW1 1600   0.699   0.682   2.321 -0.4654 -1.7755  1.5730
  336SOL    HW2 1601   0.584   0.780   2.335 -0.3699 -1.2739 -0.7627
  337SOL     OW 1602   7.265   5.364   1.929  0.2000 -0.8399  0.2946
  337SOL    HW1 1603   7.346   5.314   1.921  0.1412 -0.8777 -0.1052
  337SOL    HW2 1604   7.209   5.311   1.985  0.7173 -0.4663  1.1794
  338SOL     OW 1605   0.989   0.655   3.132 -0.1611 -0.3528 -0.0639
  338SOL    HW1 1606   0.974   0.714   3.206  0.3302 -0.5888  0.2272
  338SOL    HW2 1607   1.014   0.572   3.172 -0.8012 -0.7542 -0.4753
  339SOL     OW 1608   0.261   2.166   2.151 -0.1111 -0.2132 -0.2038
  339SOL    HW1 1609   0.170   2.137   2.148 -0.0383 -0.6758  1.3472
  339SOL    HW2 1610   0.259   2.253   2.112 -1.4818  0.3878  1.1271
  340SOL     OW 1611   1.624   1.550   2.750  0.2233 -1.0071 -0.1698
  340SOL    HW1 1612   1.715   1.534   2.726  0.5369 -0.8463  0.8449
  340SOL    HW2 1613   1.607   1.489   2.822 -0.2731 -0.6205  0.0472
  341SOL     OW 1614   1.663   0.001   0.799  0.9029  0.2568 -0.3080
  341SOL    HW1 1615   1.675  -0.009   0.705 -1.3611  1.1490 -0.7442
  341SOL    HW2 1616   1.573  -0.024   0.815  1.1942  0.2802  1.6146
  342SOL     OW 1617   0.332   1.151   1.991  0.0157 -0.1723 -0.0637
  342SOL    HW1 1618   0.335   1.220   1.925  2.0349  0.1652  0.3173
  342SOL    HW2 1619   0.316   1.071   1.940 -0.3606  0.3249 -0.7389
  343SOL     OW 1620   0.708   2.676   3.096 -0.8940  0.3411  0.2501
  343SOL    HW1 1621   0.630   2.643   3.051 -1.2178  0.9307  0.3668
  343SOL    HW2 1622   0.780   2.658   3.035 -1.4230  1.7827 -0.8415
  344SOL     OW 1623   1.612   0.281   2.822 -0.2967 -0.1418  0.3324
  344SOL    HW1 1624   1.647   0.198   2.789 -0.5333 -0.5445  1.0790
  344SOL    HW2 1625   1.614   0.339   2.746  0.7368 -0.5538  0.0263
  345SOL     OW 1626   0.461   0.420   2.354  0.0678  0.1753  0.3302
  345SOL    HW1 1627   0.480   0.407   2.261 -1.0510  4.3755 -0.6863
  345SOL    HW2 1628   0.365   0.421   2.359  0.1007 -0.2232  1.6468
  346SOL     OW 1629   3.047   0.693   2.723 -0.2989 -0.1811 -0.2002
  346SOL    HW1 1630   3.080   0.606   2.700  0.9725 -0.1195  1.2289
  346SOL    HW2 1631   3.024   0.733   2.639  2.5096 -0.5532 -1.2384
  347SOL     OW 1632   1.071   2.377   0.337 -0.0457 -0.2333 -0.5027
  347SOL    HW1 1633   1.105   2.435   0.268 -2.0044 -0.0078 -1.3497
  347SOL    HW2 1634   0.976   2.389   0.333 -0.5290 -3.3642 -0.5998
  348SOL     OW 1635   0.729   0.309   2.974  0.1253 -0.1961  0.7012
  348SOL    HW1 1636   0.758   0.393   2.938  0.8625 -0.7648 -0.0926
  348SOL    HW2 1637   0.641   0.297   2.939  0.4027 -0.2122 -0.0138
  349SOL     OW 1638   2.286   0.783   2.756 -0.6367  0.4927 -0.2310
  349SOL    HW1 1639   2.262   0.707   2.703 -4.0310  0.2644  1.3183
  349SOL    HW2 1640   2.314   0.746   2.839  0.6537  0.9173 -0.4627
  350SOL     OW 1641   1.624   2.808   2.139  0.4113 -0.7788 -0.0103
  350SOL    HW1 1642   1.714   2.780   2.125  0.3436 -0.8573 -0.2979
  350SOL    HW2 1643   1.591   2.751   2.209  0.8213 -0.2404  0.6372
  351SOL     OW 1644   2.526   0.111   3.210  0.7101 -0.3934 -0.6711
  351SOL    HW1 1645   2.470   0.181   3.177  0.6517  0.4009  1.0050
  351SOL    HW2 1646   2.608   0.121   3.162  0.9170  1.2455 -0.0248
  352SOL     OW 1647   1.427   0.695   0.460  0.4912 -0.1858 -0.2430
  352SOL    HW1 1648   1.406   0.712   0.552  3.1527  0.3192  0.3502
  352SOL    HW2 1649   1.510   0.649   0.462 -0.0738 -1.4508 -2.3932
  353SOL     OW 1650   0.708   1.656   2.586 -0.1156 -0.8405  0.3480
  353SOL    HW1 1651   0.748   1.627   2.668 -1.8265 -0.4546  1.3575
  353SOL    HW2 1652   0.624   1.611   2.582 -0.0788 -0.8509 -1.2176
  354SOL     OW 1653   2.100   0.463   2.789  0.0798 -0.3289 -0.1305
  354SOL    HW1 1654   2.060   0.465   2.876  0.2663 -0.9290 -0.0265
  354SOL    HW2 1655   2.058   0.534   2.742  0.1244  0.1346  0.5175
  355SOL     OW 1656   1.645   5.008   3.102  0.6563 -0.6278 -0.1565
  355SOL    HW1 1657   1.623   5.064   3.177  1.2113 -0.9876  0.2853
  355SOL    HW2 1658   1.562   4.997   3.055  1.0925  3.4322 -2.3075
  356SOL     OW 1659   1.015   5.391   3.086  0.3115  0.4093 -0.5513
  356SOL    HW1 1660   0.929   5.369   3.122  0.0286  0.7438 -1.0101
  356SOL    HW2 1661   1.018   5.487   3.090  0.5524  0.4117 -0.7950
  357SOL     OW 1662   0.474   2.042   2.258 -0.1633 -1.0817  0.1348
  357SOL    HW1 1663   0.509   2.000   2.180  0.8689 -0.2023  0.1094
  357SOL    HW2 1664   0.389   2.076   2.231 -0.0326 -1.2188 -0.4545
  358SOL     OW 1665   0.906   1.350   2.236  0.5957 -0.2527  0.0275
  358SOL    HW1 1666   0.925   1.435   2.276  0.6111 -0.3520  0.2314
  358SOL    HW2 1667   0.897   1.369   2.142 -0.2091  0.1156  0.1670
  359SOL     OW 1668   0.984   0.973   2.419  0.0799 -0.6262  0.1163
  359SOL    HW1 1669   0.905   0.992   2.367  1.3181 -1.8667 -2.4535
  359SOL    HW2 1670   1.004   1.055   2.464 -1.1313  0.5539 -1.3679
  360SOL     OW 1671   2.457   1.765   2.408  0.4629  0.2398  0.5041
  360SOL    HW1 1672   2.464   1.671   2.423  1.0669  0.1884 -0.0513
  360SOL    HW2 1673   2.417   1.799   2.488 -1.0814 -0.6636  0.1621
  361SOL     OW 1674   1.400   2.642   0.711 -0.2350 -0.2945  0.3505
  361SOL    HW1 1675   1.471   2.586   0.744  0.1741 -0.6589 -1.0803
  361SOL    HW2 1676   1.394   2.713   0.775  0.1122 -1.2752  1.5179
  362SOL     OW 1677   0.635   2.224   2.879 -0.0818 -0.2723  0.0853
  362SOL    HW1 1678   0.622   2.277   2.958  0.8651  2.1300 -1.2559
  362SOL    HW2 1679   0.705   2.162   2.902  1.6383  1.7470  0.6170
  363SOL     OW 1680   0.997   1.118   2.877 -0.6553 -0.3208  0.4935
  363SOL    HW1 1681   1.022   1.189   2.818  0.4389 -0.5895  0.6102
  363SOL    HW2 1682   1.080   1.087   2.914 -0.9262 -2.5898 -0.6046
  364SOL     OW 1683   1.418   1.070   0.274 -1.0738 -0.0849  0.1724
  364SOL    HW1 1684   1.429   1.040   0.184  2.2093 -0.1576  0.4684
  364SOL    HW2 1685   1.471   1.010   0.326 -0.0239  2.0037  1.6687
  365SOL     OW 1686   1.512   0.786   1.038 -0.0820  0.1383  0.1560
  365SOL    HW1 1687   1.584   0.790   0.975  0.8402  0.9318  1.2170
  365SOL    HW2 1688   1.519   0.866   1.089 -1.3970 -0.0280  0.6529
  366SOL     OW 1689   2.559   4.659   2.952 -0.6259  0.2024 -0.7822
  366SOL    HW1 1690   2.627   4.698   2.897  0.7303 -0.6314  0.2351
  366SOL    HW2 1691   2.597   4.577   2.983 -0.6013  1.3466  2.6891
  367SOL     OW 1692   0.602   1.443   1.698 -0.2270  0.4451  0.0260
  367SOL    HW1 1693   0.630   1.357   1.729  1.5244  0.6707 -0.8046
  367SOL    HW2 1694   0.514   1.429   1.662 -1.1788 -0.3790  2.4609
  368SOL     OW 1695   0.316   1.064   2.641 -0.0850  0.1116 -0.1025
  368SOL    HW1 1696   0.247   1.060   2.575  0.3768  1.0430 -0.6572
  368SOL    HW2 1697   0.370   0.986   2.625 -0.6388 -0.2811 -0.0685
  369SOL     OW 1698   1.003   0.066   0.182  0.2589  0.0215 -0.5590
  369SOL    HW1 1699   0.915   0.029   0.185 -0.0159  0.6270  2.8520
  369SOL    HW2 1700   1.061  -0.010   0.191  0.1165 -0.3122 -2.1687
  370SOL     OW 1701   7.494   0.715   2.330  0.1771  0.1710 -0.1540
  370SOL    HW1 1702   7.453   0.722   2.244  0.8169 -1.2805 -0.6094
  370SOL    HW2 1703   7.588   0.727   2.314  0.3903 -0.8656  0.1938
  371SOL     OW 1704   1.729   4.640   2.902  0.1544  0.0610  0.0863
  371SOL    HW1 1705   1.728   4.733   2.877 -0.7535 -0.3927 -1.7168
  371SOL    HW2 1706   1.659   4.632   2.966 -0.2248  0.4978 -0.2638
  372SOL     OW 1707   0.075   4.621   3.092  0.0870  0.2043 -0.0537
  372SOL    HW1 1708   0.123   4.696   3.126  1.1908 -0.1497 -0.7850
  372SOL    HW2 1709   0.013   4.658   3.029  0.8660  0.4858 -0.6688
  373SOL     OW 1710   0.613   0.788   1.866  0.4594 -0.1396 -0.2937
  373SOL    HW1 1711   0.690   0.838   1.839  1.1247 -1.9066 -1.8731
  373SOL    HW2 1712   0.647   0.725   1.930  0.3170 -0.8378 -0.8998
  374SOL     OW 1713   1.088   0.704   0.465  0.3144  0.0614  0.0549
  374SOL    HW1 1714   1.097   0.702   0.560  1.2201  0.1715 -0.0221
  374SOL    HW2 1715   1.098   0.796   0.441  0.3161  0.0062 -0.1646
  375SOL     OW 1716   1.282   1.584   2.721  0.2797 -0.1022 -0.0439
  375SOL    HW1 1717   1.233   1.648   2.670  1.9295  0.1781 -1.3656
  375SOL    HW2 1718   1.337   1.539   2.656  1.4502 -0.6764  1.2978
  376SOL     OW 1719   1.006   5.075   2.719  0.1576  0.1166  0.5041
  376SOL    HW1 1720   1.081   5.134   2.729  1.1991 -1.2870  1.4268
  376SOL    HW2 1721   0.953   5.090   2.797 -0.8990  1.5551 -0.4445
  377SOL     OW 1722   6.763   1.813   3.281 -0.0997  0.2523  0.5671
  377SOL    HW1 1723   6.767   1.849   3.192  1.1067  1.3001  1.0091
  377SOL    HW2 1724   6.853   1.783   3.298 -0.6222 -1.1466  0.9628
  378SOL     OW 1725   1.205   1.899   1.490 -0.1103  0.4117  0.6444
  378SOL    HW1 1726   1.124   1.863   1.525  0.0238  0.7421  1.3166
  378SOL    HW2 1727   1.232   1.964   1.554 -0.8003  2.3577 -0.9548
  379SOL     OW 1728   2.434   1.507   2.541  0.5174 -0.0470 -0.0947
  379SOL    HW1 1729   2.474   1.532   2.623 -1.0968  1.1876  0.3780
  379SOL    HW2 1730   2.364   1.445   2.566  0.1591  0.1674 -0.5422
  380SOL     OW 1731   0.530   0.883   2.149  0.2796  0.4928  0.3080
  380SOL    HW1 1732   0.583   0.830   2.089 -0.8687 -0.1685 -0.1491
  380SOL    HW2 1733   0.563   0.972   2.138  1.3128  0.0993  0.0639
  381SOL     OW 1734   2.486   2.437   0.793 -0.4943  0.0978  0.0477
  381SOL    HW1 1735   2.453   2.520   0.828  0.8831  0.0406  1.6043
  381SOL    HW2 1736   2.571   2.460   0.753 -1.4003 -0.0894 -2.1308
  382SOL     OW 1737   0.948   2.444   1.694  0.2579  0.6729 -0.1226
  382SOL    HW1 1738   0.862   2.424   1.733  0.8827 -0.9967  0.4663
  382SOL    HW2 1739   0.993   2.494   1.762  0.4513 -0.1460  0.3717
  383SOL     OW 1740   0.142   2.878   3.049 -0.0538 -0.1538 -0.5226
  383SOL    HW1 1741   0.047   2.874   3.043 -0.1196  0.4524 -0.0130
  383SOL    HW2 1742   0.168   2.933   2.975 -0.1448  0.1199 -0.3521
  384SOL     OW 1743   6.916   2.130   2.268 -0.3454  0.4402  0.0327
  384SOL    HW1 1744   7.001   2.169   2.289  0.2546 -0.5430 -0.5071
  384SOL    HW2 1745   6.904   2.148   2.175 -1.4685  1.9181  0.4251
  385SOL     OW 1746   0.964   5.116   3.468 -0.2263  0.1745  0.3509
  385SOL    HW1 1747   0.985   5.026   3.442 -3.2049 -0.4251 -0.3646
  385SOL    HW2 1748   0.997   5.170   3.396 -0.8467 -0.6472 -0.5708
  386SOL     OW 1749   1.621   1.197   2.938 -0.1470 -0.0110 -0.6999
  386SOL    HW1 1750   1.707   1.156   2.929  0.2328  0.1801  1.5315
  386SOL    HW2 1751   1.640   1.290   2.946 -0.4261 -0.0645  0.8854
  387SOL     OW 1752   1.715   1.815   3.063 -0.5663 -0.0196 -0.2687
  387SOL    HW1 1753   1.727   1.910   3.070 -0.6940 -0.0998  1.6678
  387SOL    HW2 1754   1.794   1.778   3.102 -1.2634 -0.6780  0.5558
  388SOL     OW 1755   7.484   0.559   1.612 -0.4696  0.1795  0.4496
  388SOL    HW1 1756   7.569   0.516   1.609 -0.1398  0.8773 -1.0455
  388SOL    HW2 1757   7.431   0.503   1.670  0.1564 -1.8049 -0.7975
  389SOL     OW 1758   2.641   0.620   0.146  0.4014 -0.8474  0.2231
  389SOL    HW1 1759   2.604   0.658   0.226  1.4364 -0.1784  0.3907
  389SOL    HW2 1760   2.638   0.691   0.082 -0.3621 -1.3633 -0.3265
  390SOL     OW 1761   1.521   0.626   3.282 -0.0296 -0.2155 -0.0220
  390SOL    HW1 1762   1.582   0.684   3.236 -0.3491  0.3756  0.2850
  390SOL    HW2 1763   1.512   0.550   3.225  0.7785 -0.1842 -0.2019
  391SOL     OW 1764   0.749   1.525   0.082  0.0034 -0.1888  0.3690
  391SOL    HW1 1765   0.711   1.608   0.109  0.5034  0.2595 -0.2588
  391SOL    HW2 1766   0.833   1.549   0.043  0.4190 -1.0438  0.6978
  392SOL     OW 1767   0.337   2.015   2.866 -0.0277  0.1243 -0.9848
  392SOL    HW1 1768   0.376   2.096   2.897 -0.8354 -0.1803  1.0233
  392SOL    HW2 1769   0.390   1.946   2.907 -0.3451 -0.3239 -1.3235
  393SOL     OW 1770   0.648   5.371   2.204 -0.1707  0.2601 -0.1926
  393SOL    HW1 1771   0.666   5.365   2.111 -0.8338  1.7690 -0.4553
  393SOL    HW2 1772   0.591   5.448   2.213  0.4464  0.5775  1.5299
  394SOL     OW 1773   1.292   0.831   3.205  0.8407 -0.1790 -0.2396
  394SOL    HW1 1774   1.318   0.744   3.235 -0.2151 -0.5001 -0.2000
  394SOL    HW2 1775   1.257   0.816   3.116 -2.6320 -0.4502  1.0105
  395SOL     OW 1776   2.390   5.131   3.421 -0.0158  0.2432 -0.1454
  395SOL    HW1 1777   2.368   5.088   3.339 -0.5382 -1.8865  1.0409
  395SOL    HW2 1778   2.474   5.175   3.404 -0.9851  1.4304 -2.2946
  396SOL     OW 1779   1.582   0.432   1.827 -0.2981  0.1063 -0.2427
  396SOL    HW1 1780   1.556   0.521   1.848  0.6841  0.1336  0.9932
  396SOL    HW2 1781   1.500   0.388   1.802 -0.8381  1.2436 -0.5265
  397SOL     OW 1782   1.233   2.155   0.295 -0.2096  0.1114  0.4966
  397SOL    HW1 1783   1.175   2.113   0.231  0.7236  0.6179 -0.7254
  397SOL    HW2 1784   1.187   2.235   0.320 -0.6695 -0.1848  0.6244
  398SOL     OW 1785   0.274   5.151   1.618 -0.4317 -0.0840  0.0194
  398SOL    HW1 1786   0.311   5.098   1.548 -0.2745 -0.9718  0.7630
  398SOL    HW2 1787   0.338   5.145   1.689 -0.1169  1.5992 -0.0874
  399SOL     OW 1788   1.236   1.109   3.215  0.3314 -0.3367  0.1913
  399SOL    HW1 1789   1.205   1.142   3.131  0.0419  0.2871  0.5340
  399SOL    HW2 1790   1.261   1.018   3.198 -2.7776 -1.2851  0.1162
  400SOL     OW 1791   2.605   5.003   0.061 -0.1379  1.0173 -0.0311
  400SOL    HW1 1792   2.606   5.029   0.153 -1.7201 -0.7504  0.5338
  400SOL    HW2 1793   2.576   4.912   0.061  0.5519  0.7233 -2.2467
  401SOL     OW 1794   6.290   0.242   1.211  0.7471  0.3158 -0.3004
  401SOL    HW1 1795   6.318   0.332   1.191 -0.1327  0.4047 -1.2270
  401SOL    HW2 1796   6.304   0.195   1.129 -0.2256 -0.0249 -0.2781
  402SOL     OW 1797   0.321   1.675   2.432 -0.3688  0.2940 -0.3572
  402SOL    HW1 1798   0.303   1.614   2.504 -2.0977  1.2928  0.1208
  402SOL    HW2 1799   0.338   1.619   2.357 -1.2094 -0.7981  0.2356
  403SOL     OW 1800   0.497   3.167   2.373 -0.5131  0.1928  0.5602
  403SOL    HW1 1801   0.413   3.211   2.359 -1.2480 -0.7717  1.7607
  403SOL    HW2 1802   0.508   3.111   2.296 -1.9879 -1.1961  1.3064
  404SOL     OW 1803   0.033   3.111   0.749 -0.2966 -0.1294  0.0376
  404SOL    HW1 1804   0.110   3.055   0.743  0.5718  1.0945 -0.5017
  404SOL    HW2 1805  -0.015   3.094   0.667 -1.4835 -2.0803  1.0641
  405SOL     OW 1806   2.408   3.184   0.396  0.5862  0.2697 -0.2581
  405SOL    HW1 1807   2.413   3.095   0.430 -0.8101  0.4681  0.5748
  405SOL    HW2 1808   2.495   3.203   0.363  1.0153 -1.2504 -0.0488
  406SOL     OW 1809   0.531   4.066   1.263 -0.0580  0.0333  0.2880
  406SOL    HW1 1810   0.517   4.069   1.358  2.1525  1.0064  0.6620
  406SOL    HW2 1811   0.540   4.158   1.237 -0.5938 -0.2246 -0.8593
  407SOL     OW 1812   2.995   2.533   3.492  0.3361 -0.0424 -0.2845
  407SOL    HW1 1813   3.048   2.453   3.499 -0.7244 -0.7251  0.0624
  407SOL    HW2 1814   2.971   2.538   3.400  0.0339 -0.3599 -0.2214
  408SOL     OW 1815   1.484   1.618   1.024  0.1860  0.0058 -0.0297
  408SOL    HW1 1816   1.403   1.665   1.041  0.3569  0.0940  0.5372
  408SOL    HW2 1817   1.465   1.527   1.047  0.2153  0.0057 -0.0059
  409SOL     OW 1818   2.539   3.743   0.629  0.0536 -0.1303 -0.5243
  409SOL    HW1 1819   2.491   3.684   0.572 -0.7050 -1.6264  1.5520
  409SOL    HW2 1820   2.607   3.689   0.670  0.0163  0.6530  0.6533
  410SOL     OW 1821   6.681   2.664   1.258  0.1878 -0.3728 -0.0027
  410SOL    HW1 1822   6.643   2.586   1.217 -0.9139 -0.1535  0.5747
  410SOL    HW2 1823   6.767   2.635   1.290  0.7307 -0.7599 -1.7071
  411SOL     OW 1824   1.049   2.698   0.788  0.0453 -0.3303  0.6175
  411SOL    HW1 1825   1.019   2.609   0.806 -0.3043 -0.0828  1.2743
  411SOL    HW2 1826   1.045   2.705   0.692 -1.4276 -0.5131  0.6396
  412SOL     OW 1827   0.423   2.139   3.511  0.0980  0.3583 -0.6759
  412SOL    HW1 1828   0.385   2.226   3.498 -0.0894  0.5641  1.0852
  412SOL    HW2 1829   0.512   2.156   3.541  0.0816 -0.0640 -0.3858
  413SOL     OW 1830   1.934   3.292   0.404  0.4206 -0.1510  0.1501
  413SOL    HW1 1831   1.920   3.221   0.341 -1.2791 -0.2762  0.6300
  413SOL    HW2 1832   1.914   3.372   0.355  0.8165 -0.1123  0.0477
  414SOL     OW 1833   7.116   2.855   0.963  0.5535 -0.2096  0.3973
  414SOL    HW1 1834   7.164   2.924   0.919 -0.6357  0.9402  0.8179
  414SOL    HW2 1835   7.152   2.853   1.052  1.3190 -0.8815  0.0784
  415SOL     OW 1836   1.877   3.405   1.965 -0.1354  0.7804  0.0949
  415SOL    HW1 1837   1.834   3.333   1.919  1.9521 -2.6063  2.8820
  415SOL    HW2 1838   1.964   3.411   1.924  0.7515 -0.4224  1.6731
  416SOL     OW 1839   0.761   2.367   0.660  0.7801 -0.1199 -0.1141
  416SOL    HW1 1840   0.747   2.441   0.719 -2.6946 -1.3174  0.8184
  416SOL    HW2 1841   0.811   2.304   0.712  2.8739  1.0543 -0.5789
  417SOL     OW 1842   2.464   2.717   0.724 -0.8957 -0.3390 -0.0290
  417SOL    HW1 1843   2.502   2.793   0.768 -0.7175 -0.5751  0.2234
  417SOL    HW2 1844   2.369   2.731   0.730 -0.9370 -1.1655  1.8489
  418SOL     OW 1845   7.321   3.888   0.639 -0.0696  0.4744  0.3592
  418SOL    HW1 1846   7.391   3.951   0.656  1.4662 -0.8161 -0.9020
  418SOL    HW2 1847   7.352   3.806   0.677 -1.2806  0.0400  0.4810
  419SOL     OW 1848   0.263   3.164   1.792  0.0211  0.3648  0.2642
  419SOL    HW1 1849   0.248   3.162   1.698  1.4919 -1.3920  0.0244
  419SOL    HW2 1850   0.195   3.107   1.828  0.4055 -0.2011  0.1025
  420SOL     OW 1851   6.723   2.916   1.926 -0.4588 -0.5150  0.0593
  420SOL    HW1 1852   6.772   2.994   1.953 -2.5817 -0.0051  2.8446
  420SOL    HW2 1853   6.664   2.948   1.857  0.3626 -0.2787 -0.5586
  421SOL     OW 1854   0.833   2.156   0.818 -0.5076 -0.3758 -0.4936
  421SOL    HW1 1855   0.814   2.063   0.822 -0.9264 -0.2511  0.5632
  421SOL    HW2 1856   0.926   2.161   0.796 -0.1742 -1.0585  0.7216
  422SOL     OW 1857   7.174   3.510   1.009 -0.2733  0.4396  0.2820
  422SOL    HW1 1858   7.255   3.535   1.052 -1.2814  2.5456  1.1292
  422SOL    HW2 1859   7.154   3.583   0.950 -1.2402 -0.2977 -0.3418
  423SOL     OW 1860   6.061   4.075   0.356  0.3035 -0.8327 -0.7794
  423SOL    HW1 1861   6.102   4.064   0.270  1.6919  0.2010 -0.2974
  423SOL    HW2 1862   6.093   4.001   0.407  0.2864 -0.9040 -0.8720
  424SOL     OW 1863   0.877   1.903   2.105  0.0095  0.0548  0.0106
  424SOL    HW1 1864   0.916   1.967   2.163  0.9940  0.9717 -1.5776
  424SOL    HW2 1865   0.890   1.819   2.148  0.6624  0.7001  1.1049
  425SOL     OW 1866   0.102   3.569   2.883 -0.0051 -1.0159  0.3209
  425SOL    HW1 1867   0.034   3.584   2.816  0.4096  1.9369  0.4042
  425SOL    HW2 1868   0.055   3.573   2.966  0.1998  1.2804  0.3908
  426SOL     OW 1869   1.998   4.295   3.058 -0.0655 -0.4095 -0.1915
  426SOL    HW1 1870   1.906   4.266   3.063 -0.4293  0.7039 -0.2239
  426SOL    HW2 1871   2.012   4.310   2.964 -0.3556  0.9417 -0.0414
  427SOL     OW 1872   6.686   4.711   0.196 -0.1601  0.4632 -0.3134
  427SOL    HW1 1873   6.780   4.725   0.206 -0.3053  1.0967  0.1987
  427SOL    HW2 1874   6.672   4.621   0.226 -0.1498  1.3359  2.5969
  428SOL     OW 1875   1.938   3.250   0.707 -0.0732 -0.1494 -0.0931
  428SOL    HW1 1876   1.942   3.244   0.612  2.1414 -0.9787  0.0008
  428SOL    HW2 1877   1.959   3.342   0.727  0.8498 -0.2949 -0.3699
  429SOL     OW 1878   1.679   3.137   0.759 -0.3745 -0.5545  0.0836
  429SOL    HW1 1879   1.667   3.108   0.669 -2.3091 -1.2364  0.5080
  429SOL    HW2 1880   1.767   3.174   0.761 -0.0112 -1.1960 -1.8920
  430SOL     OW 1881   1.202   2.970   2.202 -0.2076 -0.3493  0.3609
  430SOL    HW1 1882   1.110   2.956   2.225  0.0058 -1.7639  0.4977
  430SOL    HW2 1883   1.202   2.984   2.107 -0.4555 -1.8716  0.1090
  431SOL     OW 1884   0.322   3.360   3.427  0.1289 -0.4246  0.1695
  431SOL    HW1 1885   0.370   3.425   3.479  0.5687 -0.4989 -0.1389
  431SOL    HW2 1886   0.312   3.401   3.341 -0.9208 -0.1499  0.4065
  432SOL     OW 1887   1.891   3.172   2.180 -0.2278 -0.3275 -0.6607
  432SOL    HW1 1888   1.855   3.207   2.098  1.0050  1.2185 -0.5669
  432SOL    HW2 1889   1.826   3.195   2.246 -0.3155  0.1362 -0.9023
  433SOL     OW 1890   1.071   1.740   0.576 -0.8802 -0.0520 -0.2900
  433SOL    HW1 1891   1.024   1.704   0.500 -2.7489  1.1189  0.2352
  433SOL    HW2 1892   1.119   1.815   0.542 -1.0387 -0.0407 -0.4905
  434SOL     OW 1893   0.906   3.143   1.232 -0.3258  0.1440 -0.2107
  434SOL    HW1 1894   0.856   3.225   1.232 -0.6790 -0.0667 -0.0088
  434SOL    HW2 1895   0.853   3.083   1.285  0.1786 -0.0651  0.0604
  435SOL     OW 1896   1.586   2.904   0.934  0.5074  0.2948 -0.1006
  435SOL    HW1 1897   1.491   2.913   0.932  0.2867 -1.3931 -2.7812
  435SOL    HW2 1898   1.618   2.975   0.877  0.6125 -0.5850 -1.1778
  436SOL     OW 1899   1.881   3.492   3.053  0.1452 -0.0339 -0.3937
  436SOL    HW1 1900   1.849   3.567   3.002 -0.7824  0.7359  1.2206
  436SOL    HW2 1901   1.915   3.531   3.134  1.2546 -1.2339 -0.2416
  437SOL     OW 1902   6.717   1.945   0.954 -0.4279  0.2365  0.5263
  437SOL    HW1 1903   6.647   1.883   0.973  0.0026 -0.9249 -1.3463
  437SOL    HW2 1904   6.766   1.905   0.882  1.6670  1.4051  1.2081
  438SOL     OW 1905   1.092   2.006   3.528 -1.1587  0.0126  0.4450
  438SOL    HW1 1906   1.056   1.946   3.463  1.2200  0.3537 -1.3201
  438SOL    HW2 1907   1.061   2.092   3.501  0.2494  0.2155 -0.6110
  439SOL     OW 1908   2.166   4.526   0.257 -0.1867 -0.0740  0.1975
  439SOL    HW1 1909   2.218   4.492   0.184 -0.3386 -0.2103  0.1533
  439SOL    HW2 1910   2.154   4.451   0.315  0.4108  0.1659  0.6416
  440SOL     OW 1911   0.369   2.546   2.568  0.3654  0.3899  0.3086
  440SOL    HW1 1912   0.296   2.596   2.605 -0.8337 -0.8070 -0.3210
  440SOL    HW2 1913   0.385   2.477   2.633  0.7221  0.4632  0.2983
  441SOL     OW 1914   1.236   1.228   1.269 -0.2289  0.0246 -0.3191
  441SOL    HW1 1915   1.310   1.283   1.243 -0.4384  0.4273 -0.0613
  441SOL    HW2 1916   1.164   1.256   1.212 -0.9218  1.4667  1.1956
  442SOL     OW 1917   2.775   3.700   0.767 -0.2922  0.3583 -0.0735
  442SOL    HW1 1918   2.860   3.663   0.793 -0.0916 -0.2227 -1.4478
  442SOL    HW2 1919   2.777   3.790   0.799 -0.1189 -0.2911  1.9328
  443SOL     OW 1920   0.420   2.150   0.805 -0.1711 -0.2808  0.2938
  443SOL    HW1 1921   0.487   2.166   0.872  2.2733  2.5044 -2.4641
  443SOL    HW2 1922   0.446   2.067   0.765  1.0800  0.2520 -0.0520
  444SOL     OW 1923   0.306   4.182   0.662  0.2630 -0.3583  0.2519
  444SOL    HW1 1924   0.397   4.157   0.680 -0.0292 -0.8709  1.1117
  444SOL    HW2 1925   0.312   4.248   0.594  1.2949 -0.2703  0.4095
  445SOL     OW 1926   1.175   2.480   2.298 -0.1406 -0.0878  0.1975
  445SOL    HW1 1927   1.109   2.419   2.265  1.9523 -2.9185  0.9198
  445SOL    HW2 1928   1.250   2.468   2.239  0.2430  2.0866  0.1658
  446SOL     OW 1929   1.301   1.529   0.626  0.3109 -0.4815 -0.3968
  446SOL    HW1 1930   1.211   1.520   0.595  0.5475 -0.2619 -1.1815
  446SOL    HW2 1931   1.317   1.450   0.677 -0.1557 -0.7696 -0.6901
  447SOL     OW 1932   0.301   2.369   3.478  0.2252 -0.1827  0.4800
  447SOL    HW1 1933   0.347   2.420   3.411 -0.8400 -0.4508 -0.4867
  447SOL    HW2 1934   0.232   2.428   3.510 -1.1431 -1.0277 -0.7829
  448SOL     OW 1935   0.922   3.092   1.720 -0.1102 -0.3689  0.1206
  448SOL    HW1 1936   0.997   3.097   1.780  0.1057 -0.3262 -0.1456
  448SOL    HW2 1937   0.846   3.113   1.774  0.3108  1.9799 -0.0798
  449SOL     OW 1938   0.450   0.002   0.489 -0.1094  0.5028 -0.6095
  449SOL    HW1 1939   0.438  -0.014   0.395  0.1789  1.6059 -0.8396
  449SOL    HW2 1940   0.545  -0.007   0.502 -0.1927 -0.0520 -0.3323
  450SOL     OW 1941   0.780   2.094   3.545 -0.8709 -0.1750 -0.4995
  450SOL    HW1 1942   0.819   2.181   3.541  1.2206 -1.0149  0.3312
  450SOL    HW2 1943   0.760   2.080   3.637 -1.6512 -0.4139 -0.6921
  451SOL     OW 1944   2.907   4.126   2.624  0.1359  0.2438 -0.1915
  451SOL    HW1 1945   2.842   4.061   2.598  0.6804 -0.7684  0.8718
  451SOL    HW2 1946   2.949   4.153   2.542 -0.3456 -0.4760 -0.6842
  452SOL     OW 1947   0.801   3.375   0.932 -1.1711 -0.1298  0.0090
  452SOL    HW1 1948   0.764   3.360   0.845  2.1495 -1.2226 -1.3896
  452SOL    HW2 1949   0.829   3.466   0.931  0.9868 -0.7350 -1.0916
  453SOL     OW 1950   7.217   3.111   0.575 -0.0876  0.2523 -0.0911
  453SOL    HW1 1951   7.151   3.173   0.543  0.2768 -0.2225 -1.8516
  453SOL    HW2 1952   7.300   3.146   0.544  0.3475  0.0548  0.8343
  454SOL     OW 1953   2.028   1.759   0.492 -0.0398 -0.5545  0.4527
  454SOL    HW1 1954   2.018   1.854   0.486 -0.8877 -0.6699 -0.1569
  454SOL    HW2 1955   1.939   1.725   0.488  0.2757 -1.3939  0.2499
  455SOL     OW 1956   0.640   4.330   1.568  0.3232 -0.2618 -0.1335
  455SOL    HW1 1957   0.682   4.303   1.487 -0.6323 -2.6520  0.0789
  455SOL    HW2 1958   0.670   4.420   1.582  2.8701 -0.7799 -1.5555
  456SOL     OW 1959   2.905   2.920   0.631 -0.5023 -0.1513  0.7591
  456SOL    HW1 1960   2.857   2.859   0.575 -2.2435  0.5476  1.4212
  456SOL    HW2 1961   2.846   2.995   0.640  1.2923  1.3773  0.4994
  457SOL     OW 1962   1.616   4.699   1.321  0.0663  0.4790 -0.4738
  457SOL    HW1 1963   1.705   4.734   1.325 -0.0469  0.8194 -0.9166
  457SOL    HW2 1964   1.567   4.751   1.385  0.3520 -0.2322  0.3558
  458SOL     OW 1965   1.611   2.428   2.940 -0.2147  0.3143  0.3554
  458SOL    HW1 1966   1.637   2.401   2.851 -1.1051  0.0620  0.1608
  458SOL    HW2 1967   1.658   2.510   2.954 -1.2557  1.2006 -0.9910
  459SOL     OW 1968   2.622   1.928   0.622  0.6137  0.5478 -0.2023
  459SOL    HW1 1969   2.642   2.015   0.656 -0.8587  0.2363  1.6147
  459SOL    HW2 1970   2.533   1.909   0.654  0.0033 -0.7232 -2.4240
  460SOL     OW 1971   0.551   3.684   1.434 -0.0008 -0.3383  0.3141
  460SOL    HW1 1972   0.565   3.749   1.503 -0.2835  1.3260 -1.1125
  460SOL    HW2 1973   0.467   3.710   1.394  0.7050 -0.5209 -1.3841
  461SOL     OW 1974   2.049   3.800   2.736 -0.6086 -0.2568 -0.7732
  461SOL    HW1 1975   2.052   3.798   2.641  0.4870 -0.7372 -0.7415
  461SOL    HW2 1976   2.100   3.878   2.760  1.4030 -1.5675 -0.5378
  462SOL     OW 1977   6.603   2.961   1.289  0.6840 -0.0014  0.2139
  462SOL    HW1 1978   6.600   2.966   1.385 -1.5247  1.4296  0.1517
  462SOL    HW2 1979   6.652   2.881   1.270 -0.1215 -1.1342  2.5695
  463SOL     OW 1980   1.518   2.980   0.530  0.3493  0.1940  0.2400
  463SOL    HW1 1981   1.447   3.031   0.491 -0.4268 -2.5458 -2.3686
  463SOL    HW2 1982   1.479   2.939   0.607  0.3224  1.6945  1.0547
  464SOL     OW 1983   0.373   3.517   0.873  0.4997 -0.0270 -0.1354
  464SOL    HW1 1984   0.442   3.583   0.866  0.1755  0.3021 -0.2558
  464SOL    HW2 1985   0.336   3.512   0.784  1.2282 -1.1432 -0.3952
  465SOL     OW 1986   2.415   3.175   3.382 -0.0237  0.3414 -0.2143
  465SOL    HW1 1987   2.493   3.132   3.417 -0.9177  0.2913  1.8765
  465SOL    HW2 1988   2.436   3.268   3.385 -0.2388  0.3688  0.9500
  466SOL     OW 1989   0.155   4.509   1.920 -0.0483 -0.2401  0.2352
  466SOL    HW1 1990   0.173   4.425   1.879 -0.9889 -0.1836 -0.3278
  466SOL    HW2 1991   0.106   4.558   1.854  0.2610  0.6512  0.6507
  467SOL     OW 1992   0.299   2.301   1.158  0.1191 -0.4177 -0.3629
  467SOL    HW1 1993   0.260   2.388   1.151 -1.0252 -0.7816  0.9863
  467SOL    HW2 1994   0.387   2.316   1.192  0.5341  0.3004 -1.6911
  468SOL     OW 1995   6.867   3.438   0.542  0.1770  0.2489 -0.3088
  468SOL    HW1 1996   6.793   3.426   0.483  0.4230  0.2829 -0.6306
  468SOL    HW2 1997   6.855   3.526   0.577  0.4767  0.5596 -0.9603
  469SOL     OW 1998   0.821   1.501   1.483 -0.5292  0.3604 -0.0383
  469SOL    HW1 1999   0.868   1.421   1.508 -0.5866  0.0319 -0.9565
  469SOL    HW2 2000   0.729   1.478   1.490 -0.5463  0.3706 -0.2414
  470SOL     OW 2001   0.911   2.098   3.140 -0.0180 -0.2926 -0.1945
  470SOL    HW1 2002   0.905   2.106   3.044  3.0173  0.1930 -0.4294
  470SOL    HW2 2003   0.849   2.029   3.161 -1.7074  0.4293 -2.3334
  471SOL     OW 2004   5.857   1.672   0.160 -0.2637 -0.7483 -0.7341
  471SOL    HW1 2005   5.889   1.659   0.071  1.6933 -0.0981 -0.1692
  471SOL    HW2 2006   5.783   1.732   0.151 -1.3407 -2.1970 -2.0688
  472SOL     OW 2007   0.244   3.551   0.252 -0.4699 -0.0408 -0.9197
  472SOL    HW1 2008   0.246   3.644   0.274 -0.8225 -0.2806  0.1609
  472SOL    HW2 2009   0.327   3.517   0.286 -0.5988 -0.2321 -0.7976
  473SOL     OW 2010   0.072   3.407   0.498 -0.1764  0.0714  0.0624
  473SOL    HW1 2011  -0.010   3.401   0.451  0.9299  2.6651 -2.4754
  473SOL    HW2 2012   0.136   3.362   0.443  0.5102 -0.0818  0.9427
  474SOL     OW 2013   0.500   4.306   0.184 -0.0535  0.6077 -0.8781
  474SOL    HW1 2014   0.571   4.365   0.160 -0.3927  0.6655 -1.7849
  474SOL    HW2 2015   0.423   4.341   0.139 -0.6487  0.4897 -0.0011
  475SOL     OW 2016   1.925   2.333   0.699  0.5292 -0.1009  0.0598
  475SOL    HW1 2017   1.862   2.285   0.645 -0.1898 -0.5029  1.2093
  475SOL    HW2 2018   1.963   2.398   0.640  0.4955 -1.1586 -1.1683
  476SOL     OW 2019   0.148   1.987   0.269 -0.2433 -0.1110 -0.3138
  476SOL    HW1 2020   0.122   1.974   0.360  1.0675  1.4073  0.3227
  476SOL    HW2 2021   0.065   1.995   0.222 -1.0128 -3.0810  0.3159
  477SOL     OW 2022   2.210   3.790   0.797 -0.4623 -0.4060 -0.4374
  477SOL    HW1 2023   2.227   3.768   0.706  1.0612 -0.3107 -0.2081
  477SOL    HW2 2024   2.197   3.706   0.841 -0.1026 -0.5231 -0.5520
  478SOL     OW 2025   0.546   2.291   3.139  1.1884  0.1864 -0.3861
  478SOL    HW1 2026   0.533   2.200   3.165  1.5579  0.6182  1.4348
  478SOL    HW2 2027   0.587   2.333   3.215  1.4689  1.7750 -1.3479
  479SOL     OW 2028   0.455   2.562   0.704  0.1629  0.4860 -0.1512
  479SOL    HW1 2029   0.551   2.564   0.713  0.1032  0.0989  0.7927
  479SOL    HW2 2030   0.440   2.524   0.618  0.8650 -0.4182  0.1038
  480SOL     OW 2031   1.289   2.388   0.622 -0.2913 -0.5434  0.1747
  480SOL    HW1 2032   1.240   2.357   0.546 -2.9042 -0.5763  1.7672
  480SOL    HW2 2033   1.291   2.483   0.612 -0.9432 -0.5189  0.2289
  481SOL     OW 2034   0.766   3.472   2.425  0.7054  0.3294 -0.4023
  481SOL    HW1 2035   0.726   3.422   2.354  1.1593 -0.1934 -0.2989
  481SOL    HW2 2036   0.840   3.419   2.453  0.4579  0.4654  0.5529
  482SOL     OW 2037   0.519   3.139   1.766 -0.3282  0.1946  1.1106
  482SOL    HW1 2038   0.542   3.225   1.731  0.7520 -0.1623  0.8968
  482SOL    HW2 2039   0.424   3.141   1.773 -0.3443  1.3070  0.8538
  483SOL     OW 2040   1.193   3.777   0.647  0.3108 -0.3431 -0.9517
  483SOL    HW1 2041   1.187   3.846   0.581 -0.4685  0.4312 -0.1095
  483SOL    HW2 2042   1.177   3.696   0.599 -0.0421  0.1820 -1.7437
  484SOL     OW 2043   2.235   2.939   0.447  0.2338  0.7214  0.5044
  484SOL    HW1 2044   2.197   2.912   0.530 -0.4942  0.7430  0.1830
  484SOL    HW2 2045   2.228   2.862   0.390 -1.6926  1.4826 -0.3583
  485SOL     OW 2046   6.539   2.972   1.010 -0.6965 -0.4655  0.8091
  485SOL    HW1 2047   6.466   3.028   0.983 -0.2222  0.5435  1.5567
  485SOL    HW2 2048   6.551   2.991   1.103 -0.0992 -1.3332  0.9242
  486SOL     OW 2049   6.398   3.399   1.098 -0.4390  0.1138 -0.1162
  486SOL    HW1 2050   6.469   3.460   1.077 -1.2091  1.0040 -0.1863
  486SOL    HW2 2051   6.437   3.338   1.161 -0.3874  2.3486  2.1577
  487SOL     OW 2052   0.860   2.694   0.245 -0.6296  0.5437  0.0213
  487SOL    HW1 2053   0.926   2.739   0.297 -1.4485  1.0555  0.6515
  487SOL    HW2 2054   0.845   2.612   0.291 -0.8181  0.6665  0.1798
  488SOL     OW 2055   2.645   2.832   0.541 -0.4259 -0.7734 -0.2198
  488SOL    HW1 2056   2.585   2.768   0.579  1.9040 -1.4072  2.7438
  488SOL    HW2 2057   2.688   2.784   0.470 -2.0768 -0.8434 -1.2332
  489SOL     OW 2058   1.525   0.646   1.477  0.0547  0.1412  0.1586
  489SOL    HW1 2059   1.457   0.705   1.509 -0.4210  1.5196 -3.0107
  489SOL    HW2 2060   1.548   0.680   1.391  4.0002 -0.9333  0.5762
  490SOL     OW 2061   2.053   2.672   1.632  0.3156 -0.1271 -0.0572
  490SOL    HW1 2062   2.048   2.746   1.571  0.2364 -0.3731 -0.3535
  490SOL    HW2 2063   1.972   2.624   1.618  0.3770 -0.2824  0.1191
  491SOL     OW 2064   1.570   1.866   2.111  0.3736  0.1098 -0.1933
  491SOL    HW1 2065   1.511   1.860   2.186  1.2753  1.9061  0.7213
  491SOL    HW2 2066   1.608   1.778   2.103  1.8620  0.3320  2.8723
  492SOL     OW 2067   7.503   3.112   0.119  0.3795  0.2584 -0.4903
  492SOL    HW1 2068   7.577   3.162   0.153  1.3173 -0.2632 -1.7193
  492SOL    HW2 2069   7.438   3.179   0.096 -0.2789  0.6390  2.1623
  493SOL     OW 2070   1.934   3.524   0.708 -0.1798  0.1923 -0.3504
  493SOL    HW1 2071   1.859   3.539   0.651 -1.2246 -1.2058  0.6136
  493SOL    HW2 2072   1.946   3.607   0.754 -1.8581  0.0998  0.2981
  494SOL     OW 2073   0.845   4.310   1.383  0.5573 -0.1622 -0.0745
  494SOL    HW1 2074   0.893   4.370   1.326 -1.0188  0.7420 -0.5150
  494SOL    HW2 2075   0.887   4.225   1.368  1.6250  0.4737 -0.8692
  495SOL     OW 2076   0.219   3.639   2.309 -0.0161 -0.6579 -0.1408
  495SOL    HW1 2077   0.262   3.710   2.261  1.0799  0.5594  2.4423
  495SOL    HW2 2078   0.126   3.655   2.297  0.2021  1.2939  0.3494
  496SOL     OW 2079   1.124   4.539   2.714 -0.1770  0.6254 -0.2730
  496SOL    HW1 2080   1.170   4.507   2.791 -0.9325  0.4369  0.1191
  496SOL    HW2 2081   1.192   4.573   2.656  0.6974 -1.8238 -0.7814
  497SOL     OW 2082   0.967   3.314   0.297 -0.1715  0.1398  0.0784
  497SOL    HW1 2083   0.954   3.282   0.208  1.5652 -1.0654  0.2222
  497SOL    HW2 2084   1.034   3.382   0.289 -0.8986  0.9151  0.3368
  498SOL     OW 2085   1.193   3.472   0.224 -0.6956 -0.0832 -0.3879
  498SOL    HW1 2086   1.153   3.520   0.151  1.1017  0.8748 -0.8017
  498SOL    HW2 2087   1.288   3.484   0.211 -0.2422 -2.2312  0.5447
  499SOL     OW 2088   1.293   3.524   0.868  0.0800 -1.0176 -0.4498
  499SOL    HW1 2089   1.363   3.589   0.879 -0.7353 -0.1090 -0.4784
  499SOL    HW2 2090   1.337   3.446   0.835  0.9521 -0.1619 -1.3814
  500SOL     OW 2091   1.144   2.174   1.258  0.1717 -0.0853 -0.0991
  500SOL    HW1 2092   1.116   2.090   1.220 -1.2601  0.4998 -0.3811
  500SOL    HW2 2093   1.092   2.183   1.337 -0.0422  0.7668 -0.3256
  501SOL     OW 2094   0.982   4.059   1.373 -0.1567 -0.1499 -0.2384
  501SOL    HW1 2095   0.941   3.988   1.323 -0.5478  1.8624 -2.9168
  501SOL    HW2 2096   1.067   4.023   1.399 -0.3958 -1.6647 -1.3847
  502SOL     OW 2097   1.116   2.806   1.259  0.0371  0.1215  0.0117
  502SOL    HW1 2098   1.031   2.831   1.224 -0.1920  0.1593  0.5887
  502SOL    HW2 2099   1.097   2.740   1.326  0.5143 -0.3795 -0.3368
  503SOL     OW 2100   0.139   2.167   1.466 -0.0234 -0.1961 -0.3590
  503SOL    HW1 2101   0.126   2.210   1.381  1.5044 -2.4299 -1.8307
  503SOL    HW2 2102   0.080   2.091   1.463 -0.4363  0.0612  0.8738
  504SOL     OW 2103   1.041   2.856   2.003  0.3245 -0.4498  0.3478
  504SOL    HW1 2104   1.050   2.781   1.945 -0.0013  0.8581 -1.4858
  504SOL    HW2 2105   0.980   2.827   2.071 -2.3304 -0.9289 -2.0505
  505SOL     OW 2106   7.067   3.334   0.681  0.0166 -0.0584 -0.5763
  505SOL    HW1 2107   7.054   3.348   0.775  0.3855 -1.2553 -0.3239
  505SOL    HW2 2108   6.987   3.367   0.640 -0.7388 -0.7462  0.2879
  506SOL     OW 2109   0.267   2.880   3.457  0.1680 -0.1655  0.2781
  506SOL    HW1 2110   0.192   2.821   3.469 -1.0408  1.5626  1.8865
  506SOL    HW2 2111   0.331   2.852   3.523 -0.5396  0.4320  1.2646
  507SOL     OW 2112   0.330   2.511   1.751 -0.2425 -0.5214 -0.1207
  507SOL    HW1 2113   0.380   2.472   1.680  0.8091 -0.1177  0.3824
  507SOL    HW2 2114   0.313   2.601   1.722 -1.9017 -1.0284 -0.8888
  508SOL     OW 2115   1.951   3.253   2.558 -0.0476 -0.3554  0.1379
  508SOL    HW1 2116   1.914   3.165   2.556 -0.6016 -0.1593  1.0639
  508SOL    HW2 2117   1.982   3.268   2.469  1.6833 -2.1593  0.3705
  509SOL     OW 2118   1.721   4.116   3.250 -0.5502 -0.3418  0.4349
  509SOL    HW1 2119   1.708   4.159   3.166  1.2649 -1.4330 -0.4645
  509SOL    HW2 2120   1.756   4.185   3.307  0.4369 -0.1353 -0.3959
  510SOL     OW 2121   1.813   2.529   1.578  0.3108 -0.5251  0.4309
  510SOL    HW1 2122   1.825   2.452   1.523 -0.3729 -0.3706  0.0552
  510SOL    HW2 2123   1.720   2.549   1.573  0.5154  0.4855  0.3044
  511SOL     OW 2124   6.474   3.004   1.847  0.3460  0.2772 -0.7280
  511SOL    HW1 2125   6.458   3.071   1.914 -1.6406  0.5845 -1.4498
  511SOL    HW2 2126   6.466   3.051   1.764 -1.5636 -0.8806 -1.2670
  512SOL     OW 2127   1.008   1.394   1.150  0.0219  0.0549 -0.1707
  512SOL    HW1 2128   1.033   1.391   1.057  0.7296  1.3745 -0.0410
  512SOL    HW2 2129   0.919   1.360   1.151  0.2193 -0.5689 -1.2462
  513SOL     OW 2130   1.527   2.407   1.312 -0.2733 -0.1035 -0.5255
  513SOL    HW1 2131   1.436   2.405   1.283 -1.1173 -1.5587  1.9786
  513SOL    HW2 2132   1.533   2.484   1.368 -0.1904 -0.4583 -0.0406
  514SOL     OW 2133   0.941   2.249   1.493 -0.4091 -0.4092  0.5392
  514SOL    HW1 2134   0.960   2.318   1.558  0.9397 -2.1864  2.1690
  514SOL    HW2 2135   0.847   2.237   1.498 -0.4534  0.1814  1.4419
  515SOL     OW 2136   0.520   0.913   1.128 -0.2797 -0.1417 -0.1947
  515SOL    HW1 2137   0.447   0.927   1.068  0.8815  1.5877 -1.2754
  515SOL    HW2 2138   0.593   0.889   1.071  0.1673 -1.2898  0.8199
  516SOL     OW 2139   1.134   3.977   0.174  0.1538  0.4720 -0.3936
  516SOL    HW1 2140   1.195   4.046   0.148  0.0533  0.5208 -0.5002
  516SOL    HW2 2141   1.105   4.002   0.262 -0.5889  1.0557 -0.7955
  517SOL     OW 2142   1.732   2.616   1.932  0.2025 -0.0542  0.2764
  517SOL    HW1 2143   1.732   2.680   1.861 -1.5116  0.9291  1.0949
  517SOL    HW2 2144   1.654   2.562   1.915  1.4438 -1.7607 -0.2258
  518SOL     OW 2145   1.984   2.063   0.391 -0.0435 -0.4156 -0.1212
  518SOL    HW1 2146   1.912   2.036   0.334  0.3062 -1.3933 -0.1093
  518SOL    HW2 2147   2.001   2.154   0.365 -0.8557 -0.3771 -0.5635
  519SOL     OW 2148   5.656   2.447   1.695  0.0788 -0.8888  0.9539
  519SOL    HW1 2149   5.746   2.451   1.663 -0.6219 -1.3442 -1.3172
  519SOL    HW2 2150   5.658   2.384   1.767  1.2365 -2.6339 -0.5217
  520SOL     OW 2151   7.100   3.085   1.682 -0.6722 -0.1834 -0.2319
  520SOL    HW1 2152   7.085   2.997   1.647  1.8831  0.2211 -2.7281
  520SOL    HW2 2153   7.082   3.143   1.608 -1.7112  1.4256  1.1937
  521SOL     OW 2154   1.127   1.409   0.398 -0.6693 -0.2553 -0.2377
  521SOL    HW1 2155   1.059   1.476   0.410  0.3641  0.6805  0.6995
  521SOL    HW2 2156   1.132   1.397   0.304 -2.3559 -0.6077 -0.3149
  522SOL     OW 2157   1.850   2.319   1.382 -0.3908  0.3376 -0.6056
  522SOL    HW1 2158   1.908   2.250   1.415 -1.5135 -1.0035 -1.2759
  522SOL    HW2 2159   1.770   2.272   1.357 -1.4243  1.9854 -0.5608
  523SOL     OW 2160   6.087   1.138   3.249  0.5040 -0.2200 -0.0666
  523SOL    HW1 2161   5.999   1.105   3.270  0.2945  0.1936 -0.2805
  523SOL    HW2 2162   6.077   1.177   3.162  0.8843 -0.1032 -0.0577
  524SOL     OW 2163   0.831   2.772   2.816 -0.3819  0.4581  0.0609
  524SOL    HW1 2164   0.868   2.772   2.728 -1.2805  0.1518 -0.3285
  524SOL    HW2 2165   0.771   2.847   2.817  1.5655  2.1096  1.2828
  525SOL     OW 2166   0.148   3.334   0.105 -0.0603  0.0545 -0.1228
  525SOL    HW1 2167   0.162   3.404   0.169 -1.5944  0.1679  0.1424
  525SOL    HW2 2168   0.185   3.367   0.024  0.2615  0.6854  0.2766
  526SOL     OW 2169   0.661   3.890   1.582  0.3350 -0.1071  0.5603
  526SOL    HW1 2170   0.620   3.975   1.565  0.0716  0.3640  3.2305
  526SOL    HW2 2171   0.750   3.911   1.609  0.3775 -0.6953  0.8933
  527SOL     OW 2172   0.969   3.644   1.233 -0.1640 -0.2110 -0.3217
  527SOL    HW1 2173   0.999   3.681   1.150  1.3981 -0.8522 -0.0629
  527SOL    HW2 2174   1.043   3.654   1.293 -1.5816  1.1464  1.3339
  528SOL     OW 2175   0.208   1.687   1.461  0.0769  0.0810 -0.3248
  528SOL    HW1 2176   0.138   1.640   1.507 -0.9345  1.7494 -0.0745
  528SOL    HW2 2177   0.184   1.682   1.369 -0.0284  0.0738 -0.2978
  529SOL     OW 2178   1.033   1.785   0.861  0.4940  0.3099  0.5480
  529SOL    HW1 2179   0.945   1.768   0.828  0.9211 -2.3236  0.5698
  529SOL    HW2 2180   1.087   1.791   0.782  1.0072 -2.9297  0.5238
  530SOL     OW 2181   7.479   3.038   2.632  0.9436  0.6894 -0.1259
  530SOL    HW1 2182   7.426   2.996   2.563  2.7540 -1.4199 -0.3673
  530SOL    HW2 2183   7.420   3.044   2.707  0.3412 -1.8557 -0.2803
  531SOL     OW 2184   1.570   2.103   0.744 -0.4360 -0.3034  0.1951
  531SOL    HW1 2185   1.530   2.185   0.715  0.4074  0.0183 -0.0887
  531SOL    HW2 2186   1.518   2.035   0.702 -1.5836  0.0432  0.9834
  532SOL     OW 2187   0.693   3.350   0.407 -0.1184  0.1536  0.5227
  532SOL    HW1 2188   0.760   3.398   0.456  2.4999 -1.7666 -0.9398
  532SOL    HW2 2189   0.737   3.271   0.376 -3.1685 -1.3858 -0.3466
  533SOL     OW 2190   1.128   2.184   0.725 -0.3139  0.1413 -0.5627
  533SOL    HW1 2191   1.187   2.254   0.697  0.4910 -0.6642 -0.9146
  533SOL    HW2 2192   1.158   2.161   0.813 -2.2191  1.9868  0.6817
  534SOL     OW 2193   0.639   1.140   1.766 -0.6898  0.3740  0.0853
  534SOL    HW1 2194   0.564   1.117   1.821 -1.2095  1.0367 -0.3397
  534SOL    HW2 2195   0.639   1.075   1.697 -2.1532  1.5628 -1.1101
  535SOL     OW 2196   1.359   0.854   0.815  0.5433  0.7676  0.1122
  535SOL    HW1 2197   1.414   0.779   0.835  0.4815  0.6085 -0.3017
  535SOL    HW2 2198   1.415   0.913   0.765  1.1184  1.7934  1.8870
  536SOL     OW 2199   0.882   1.942   0.474  0.1637 -0.3888 -0.4264
  536SOL    HW1 2200   0.939   1.928   0.399  0.7289  0.7895 -0.2411
  536SOL    HW2 2201   0.936   1.921   0.550 -0.7664 -2.7632 -0.3320
  537SOL     OW 2202   6.990   2.048   1.388  0.7037  0.1054  0.3903
  537SOL    HW1 2203   6.920   2.031   1.325  0.9278 -0.6295  0.3322
  537SOL    HW2 2204   6.946   2.053   1.473  0.7273 -1.7341  0.5374
  538SOL     OW 2205   7.276   2.523   1.279 -0.2066 -0.6773  0.0527
  538SOL    HW1 2206   7.188   2.498   1.308 -1.0740  0.9613 -0.9915
  538SOL    HW2 2207   7.260   2.581   1.205  1.7566  0.2234  0.2989
  539SOL     OW 2208   0.366   2.556   0.381  0.4405 -0.2237 -0.3829
  539SOL    HW1 2209   0.304   2.523   0.446  0.4449 -3.1790 -1.7285
  539SOL    HW2 2210   0.314   2.612   0.324  0.2148  1.5356  1.4463
  540SOL     OW 2211   6.791   1.698   1.102 -0.3410  0.1260  0.0182
  540SOL    HW1 2212   6.757   1.621   1.056  0.7989  0.3351 -1.2527
  540SOL    HW2 2213   6.845   1.661   1.173 -0.2105 -0.2496 -0.2709
  541SOL     OW 2214   7.393   1.568   1.072  0.6438 -0.0829 -0.0033
  541SOL    HW1 2215   7.349   1.645   1.107 -0.5718 -0.3192 -0.9504
  541SOL    HW2 2216   7.463   1.550   1.135  0.3830  1.2414  0.7061
  542SOL     OW 2217   1.972   3.698   1.892 -0.4500  0.7783  0.0840
  542SOL    HW1 2218   2.041   3.638   1.918 -0.3527  0.9501  0.2290
  542SOL    HW2 2219   1.891   3.654   1.916 -0.4093  0.4297 -0.3907
  543SOL     OW 2220   0.715   3.460   2.886 -0.4561 -0.6190 -0.1527
  543SOL    HW1 2221   0.650   3.464   2.816  0.0006 -1.2221 -0.6191
  543SOL    HW2 2222   0.791   3.507   2.851  0.0533 -1.5970 -0.3787
  544SOL     OW 2223   1.328   2.771   1.546  0.2116  0.2728  0.1991
  544SOL    HW1 2224   1.360   2.795   1.633  0.0148 -0.3311  0.4345
  544SOL    HW2 2225   1.316   2.855   1.502  0.7751  0.5663  0.5860
  545SOL     OW 2226   6.464   2.529   2.158  0.8679  0.3591  0.2992
  545SOL    HW1 2227   6.483   2.609   2.109  0.4632  1.4009  1.7740
  545SOL    HW2 2228   6.550   2.488   2.170  0.9599 -0.0154 -1.3692
  546SOL     OW 2229   0.403   1.892   1.418 -0.0007 -0.1198  0.0527
  546SOL    HW1 2230   0.326   1.839   1.438  0.8922 -1.7357 -0.6723
  546SOL    HW2 2231   0.472   1.858   1.474  0.9071 -0.6016 -1.3060
  547SOL     OW 2232   0.118   2.888   1.377  0.6389 -0.0553  0.4401
  547SOL    HW1 2233   0.064   2.812   1.352  0.8338  0.4260 -1.5621
  547SOL    HW2 2234   0.069   2.964   1.344  1.4594  0.5450  0.5860
  548SOL     OW 2235   1.260   3.135   2.541 -0.2492 -0.1631  0.2718
  548SOL    HW1 2236   1.175   3.094   2.527 -0.3493  0.3648 -0.7533
  548SOL    HW2 2237   1.293   3.094   2.621 -1.8505  0.2894  1.1995
  549SOL     OW 2238   0.289   4.424   2.143 -1.3784  0.0533  0.0781
  549SOL    HW1 2239   0.377   4.402   2.111 -0.7820  0.3126  1.4494
  549SOL    HW2 2240   0.242   4.456   2.066 -0.8729 -1.8049 -1.0811
  550SOL     OW 2241   1.238   2.730   2.394 -0.4038 -0.0588 -0.0875
  550SOL    HW1 2242   1.228   2.806   2.337 -2.3833  0.0863  0.4003
  550SOL    HW2 2243   1.203   2.657   2.343 -0.3616 -0.2866  0.2058
  551SOL     OW 2244   1.167   1.977   3.208 -0.1074 -0.3803  0.1814
  551SOL    HW1 2245   1.103   2.045   3.187 -0.8281 -1.1085 -0.0346
  551SOL    HW2 2246   1.115   1.905   3.243  0.6540 -0.7852  0.5062
  552SOL     OW 2247   6.637   2.521   1.898 -0.7087  0.6011  0.0648
  552SOL    HW1 2248   6.717   2.546   1.850 -0.3634  0.0781  0.3601
  552SOL    HW2 2249   6.665   2.516   1.989 -1.5674  2.4970  0.4928
  553SOL     OW 2250   0.563   4.117   0.665 -0.5000 -0.2022  0.0930
  553SOL    HW1 2251   0.595   4.192   0.616 -1.2753 -0.3162 -0.6140
  553SOL    HW2 2252   0.610   4.120   0.748  3.4551 -1.9010 -1.8095
  554SOL     OW 2253   0.069   2.253   2.400 -0.1431  0.2600 -0.4100
  554SOL    HW1 2254   0.099   2.252   2.491 -0.1266 -1.6727 -0.3982
  554SOL    HW2 2255   0.035   2.165   2.385 -0.1300  0.5333 -2.2900
  555SOL     OW 2256   2.259   2.395   0.641  0.4764  0.3911 -0.2062
  555SOL    HW1 2257   2.214   2.311   0.654  1.1677  0.0324 -0.1124
  555SOL    HW2 2258   2.326   2.398   0.710  0.2288  1.1839  0.0165
  556SOL     OW 2259   1.906   2.562   3.103 -0.1968  0.2080  0.2718
  556SOL    HW1 2260   1.918   2.623   3.176 -1.1040 -0.1308  0.7199
  556SOL    HW2 2261   1.825   2.592   3.061  0.9794  1.2048 -1.4149
  557SOL     OW 2262   0.093   3.871   2.896  0.1531 -0.3175  0.0649
  557SOL    HW1 2263   0.126   3.922   2.970  1.0172 -1.4090  0.4723
  557SOL    HW2 2264   0.153   3.889   2.824 -0.2850  0.2138 -0.1701
  558SOL     OW 2265   0.616   2.973   1.080  0.3465 -0.1075 -0.4203
  558SOL    HW1 2266   0.616   2.984   0.985 -0.2265 -0.0201 -0.4158
  558SOL    HW2 2267   0.600   3.062   1.114 -0.2804 -0.2744 -0.2688
  559SOL     OW 2268   1.099   3.310   0.901  0.1461 -0.2424  0.6465
  559SOL    HW1 2269   1.005   3.318   0.884  0.3055 -0.2225 -0.2993
  559SOL    HW2 2270   1.123   3.392   0.944 -0.6283 -1.0629  2.7595
  560SOL     OW 2271   1.024   3.153   0.513 -0.5701  0.0523 -0.0858
  560SOL    HW1 2272   0.985   3.221   0.457  0.0375 -0.6380 -1.4084
  560SOL    HW2 2273   0.951   3.115   0.560 -1.3899 -0.5214 -1.7476
  561SOL     OW 2274   2.050   1.292   0.867 -0.6236  0.6218  0.1213
  561SOL    HW1 2275   2.000   1.213   0.848  0.8721  0.1891 -2.3947
  561SOL    HW2 2276   1.993   1.364   0.839 -1.3942  0.3841  1.0315
  562SOL     OW 2277   7.305   3.240   1.075  0.2288 -0.8454 -0.9737
  562SOL    HW1 2278   7.219   3.273   1.100  0.6368 -1.6458  1.8006
  562SOL    HW2 2279   7.287   3.171   1.011 -1.0549 -0.0201 -1.5402
  563SOL     OW 2280   1.718   3.615   0.492  0.5794 -0.0711 -0.7739
  563SOL    HW1 2281   1.640   3.579   0.535 -0.2243  1.2226 -1.1105
  563SOL    HW2 2282   1.740   3.550   0.425 -0.0313 -0.5900 -0.4792
  564SOL     OW 2283   1.783   3.178   3.023  0.1956  0.0864  0.4160
  564SOL    HW1 2284   1.815   3.264   3.051  0.8056  0.0191 -0.0512
  564SOL    HW2 2285   1.844   3.152   2.954 -0.4164 -0.4008  0.0570
  565SOL     OW 2286   0.277   3.611   1.848 -0.1156 -0.5189 -0.2515
  565SOL    HW1 2287   0.371   3.628   1.848  0.0614 -1.2764 -1.7313
  565SOL    HW2 2288   0.253   3.613   1.755 -1.8497  1.0987  0.1816
  566SOL     OW 2289   2.562   3.345   0.113 -0.0080  0.2480 -0.2003
  566SOL    HW1 2290   2.474   3.308   0.125  0.1678  0.0858  0.6616
  566SOL    HW2 2291   2.549   3.440   0.115 -0.2863  0.2343 -1.0652
  567SOL     OW 2292   1.191   3.069   1.209 -0.0775  0.3714 -0.1757
  567SOL    HW1 2293   1.181   2.975   1.219 -0.7959  0.2406 -1.8032
  567SOL    HW2 2294   1.103   3.104   1.221 -0.1902  0.6042 -1.5161
  568SOL     OW 2295   0.007   2.293   3.158 -0.3927 -0.1304  0.2639
  568SOL    HW1 2296   0.033   2.382   3.182 -3.0405  0.5882  0.8765
  568SOL    HW2 2297   0.018   2.243   3.239 -0.2210 -0.0233  0.3077
  569SOL     OW 2298   0.124   1.521   0.530  0.4606  0.2105  0.1317
  569SOL    HW1 2299   0.039   1.488   0.559  0.4829  0.0744  0.0426
  569SOL    HW2 2300   0.138   1.479   0.445  0.0086  1.2541 -0.4743
  570SOL     OW 2301   0.501   3.119   0.507 -0.2091  0.0251 -0.2223
  570SOL    HW1 2302   0.504   3.178   0.583  2.7407  0.0665 -0.2785
  570SOL    HW2 2303   0.526   3.174   0.433 -1.5830 -0.3722 -1.0106
  571SOL     OW 2304   0.871   2.629   2.231  0.1667  0.3341 -0.0531
  571SOL    HW1 2305   0.891   2.550   2.281 -1.8371 -1.9546 -2.5961
  571SOL    HW2 2306   0.917   2.699   2.278 -0.8750 -1.6546  4.4422
  572SOL     OW 2307   7.089   3.248   1.483 -0.2082 -0.1743 -0.0151
  572SOL    HW1 2308   7.181   3.271   1.498 -0.3358 -0.3098  1.1165
  572SOL    HW2 2309   7.083   3.229   1.390  0.6166  1.1611 -0.3616
  573SOL     OW 2310   6.640   3.868   0.486 -0.0756  0.9665 -0.2083
  573SOL    HW1 2311   6.709   3.817   0.527 -0.8942  0.6855  0.8675
  573SOL    HW2 2312   6.613   3.815   0.410  0.5158  0.8266 -0.3225
  574SOL     OW 2313   1.052   2.622   0.513 -0.4886  0.0197  0.1127
  574SOL    HW1 2314   1.030   2.543   0.464 -0.7430  0.5956 -0.7270
  574SOL    HW2 2315   1.135   2.651   0.476  0.6868 -0.9878  1.8478
  575SOL     OW 2316   0.564   2.407   0.258  0.3491  0.2151  0.0757
  575SOL    HW1 2317   0.505   2.480   0.280 -1.5987 -0.8319 -1.3224
  575SOL    HW2 2318   0.525   2.331   0.301  0.0630 -0.6803 -1.6685
  576SOL     OW 2319   6.728   2.463   2.169  0.1253 -0.3164 -0.2615
  576SOL    HW1 2320   6.799   2.406   2.140 -0.2015 -1.2015  0.6091
  576SOL    HW2 2321   6.770   2.526   2.228  0.6384  0.9446 -1.9084
  577SOL     OW 2322   0.721   1.514   3.239 -0.1718 -0.2382  0.1565
  577SOL    HW1 2323   0.676   1.599   3.234 -1.1241 -0.7260  0.1134
  577SOL    HW2 2324   0.686   1.473   3.318  0.4211 -0.5096  0.2796
  578SOL     OW 2325   0.422   2.885   3.208 -0.7374  0.0744 -0.0950
  578SOL    HW1 2326   0.353   2.885   3.142 -0.1680 -1.3553 -0.7179
  578SOL    HW2 2327   0.376   2.896   3.291 -1.4726  1.7757 -0.6738
  579SOL     OW 2328   0.653   3.664   2.078  0.1892  0.2756  0.1268
  579SOL    HW1 2329   0.686   3.702   2.160  1.9902 -0.0083 -0.4245
  579SOL    HW2 2330   0.616   3.580   2.104  0.1492  0.4751  0.7446
  580SOL     OW 2331   0.512   3.766   0.836  0.2846 -0.1573 -0.6670
  580SOL    HW1 2332   0.469   3.814   0.906  0.1509 -1.9116  0.5196
  580SOL    HW2 2333   0.598   3.743   0.871 -0.5036 -2.7667 -0.2080
  581SOL     OW 2334   6.460   1.847   2.496  0.6546 -0.4183 -0.6754
  581SOL    HW1 2335   6.522   1.920   2.491  1.3824 -1.0182 -0.7675
  581SOL    HW2 2336   6.515   1.769   2.485 -0.0239 -1.0093  0.0057
  582SOL     OW 2337   2.764   3.807   1.843  0.0621 -0.4107 -0.4248
  582SOL    HW1 2338   2.674   3.793   1.871  0.0959 -0.4796 -0.3520
  582SOL    HW2 2339   2.763   3.894   1.803 -0.3259 -0.9097 -1.5763
  583SOL     OW 2340   0.950   4.348   1.635  0.2134  0.0016  0.7307
  583SOL    HW1 2341   1.020   4.409   1.613 -0.3875  0.9301  1.3045
  583SOL    HW2 2342   0.914   4.321   1.551 -0.4570  1.5861  0.4774
  584SOL     OW 2343   1.546   2.617   1.489 -0.5406  0.8076  0.1293
  584SOL    HW1 2344   1.581   2.677   1.423 -0.4538 -0.3447 -0.9032
  584SOL    HW2 2345   1.478   2.668   1.533  0.5556  2.1821  0.3457
  585SOL     OW 2346   1.870   1.066   0.926 -0.4818  0.5920  0.3331
  585SOL    HW1 2347   1.787   1.113   0.919  0.4296  2.2844  0.5104
  585SOL    HW2 2348   1.883   1.054   1.020 -1.2869 -1.1732  0.2723
  586SOL     OW 2349   0.229   3.017   2.759  0.2478 -0.3785 -0.3078
  586SOL    HW1 2350   0.142   3.002   2.721  0.8493  0.4861 -2.1481
  586SOL    HW2 2351   0.223   3.104   2.797  0.2205 -0.4375 -0.1778
  587SOL     OW 2352   1.969   2.051   1.385  0.3432 -0.4467  0.4890
  587SOL    HW1 2353   1.912   2.048   1.462  0.0516 -0.7341  0.2638
  587SOL    HW2 2354   2.050   2.090   1.417 -0.7363  2.1399  0.3459
  588SOL     OW 2355   1.033   3.410   2.145 -0.0513 -0.2154  0.0538
  588SOL    HW1 2356   1.055   3.503   2.145  0.2434 -0.2148 -2.5881
  588SOL    HW2 2357   1.071   3.377   2.063 -1.5319 -2.3177  0.1548
  589SOL     OW 2358   0.734   4.573   1.649 -0.1014 -0.2834  0.2189
  589SOL    HW1 2359   0.808   4.537   1.698  0.3723 -1.1853 -1.1256
  589SOL    HW2 2360   0.763   4.661   1.623  0.1223 -0.2735  0.5016
  590SOL     OW 2361   1.226   4.023   0.841  0.2706 -0.5940  0.0754
  590SOL    HW1 2362   1.141   4.037   0.800  1.9138 -0.2240 -3.6269
  590SOL    HW2 2363   1.205   3.991   0.929 -3.6304 -0.2992 -0.5569
  591SOL     OW 2364   1.720   3.339   1.499 -0.5344 -0.2813  0.5439
  591SOL    HW1 2365   1.753   3.414   1.549 -0.9599 -0.4499  1.0828
  591SOL    HW2 2366   1.769   3.342   1.417  1.5801 -1.1092  1.6955
  592SOL     OW 2367   0.817   2.463   0.391  0.3604 -0.3034 -0.2120
  592SOL    HW1 2368   0.802   2.432   0.480  0.6308 -0.9204 -0.3755
  592SOL    HW2 2369   0.738   2.438   0.343  1.1563 -2.0568 -0.6799
  593SOL     OW 2370   1.851   3.113   0.211  0.8956  0.4335  0.5104
  593SOL    HW1 2371   1.870   3.036   0.157  1.8427  0.2125  1.1405
  593SOL    HW2 2372   1.763   3.097   0.244  0.9212 -0.1789  0.2997
  594SOL     OW 2373   1.668   3.223   1.921 -0.1528  0.4408  0.0101
  594SOL    HW1 2374   1.591   3.260   1.964  0.0476  1.1186 -0.1912
  594SOL    HW2 2375   1.644   3.219   1.828  0.2666  1.2443 -0.1432
  595SOL     OW 2376   1.593   1.110   0.899  0.4264 -0.2030 -0.6101
  595SOL    HW1 2377   1.562   1.126   0.988 -0.9167 -3.0464 -0.4581
  595SOL    HW2 2378   1.597   1.197   0.859  0.0952  1.0566  1.8835
  596SOL     OW 2379   0.593   4.465   1.880 -0.4155  0.1848 -0.0266
  596SOL    HW1 2380   0.517   4.523   1.882 -1.3864 -1.0440  0.6967
  596SOL    HW2 2381   0.616   4.459   1.787  0.1240  2.1867 -0.0673
  597SOL     OW 2382   1.335   2.060   1.657 -0.1176 -1.0304  0.2805
  597SOL    HW1 2383   1.264   2.085   1.716  0.3918  0.1211  0.4203
  597SOL    HW2 2384   1.415   2.072   1.708  0.2505 -1.2764 -0.2249
  598SOL     OW 2385   7.367   3.366   1.955 -0.0994  0.2637  0.0082
  598SOL    HW1 2386   7.353   3.374   2.049 -0.2758  1.4123 -0.1105
  598SOL    HW2 2387   7.280   3.349   1.919  0.1301 -1.3801  0.1530
  599SOL     OW 2388   7.258   3.060   0.834 -0.1670 -0.8389  1.0741
  599SOL    HW1 2389   7.352   3.046   0.844 -0.2352 -1.4471  0.8492
  599SOL    HW2 2390   7.245   3.076   0.740 -0.4432 -1.9593  0.9104
  600SOL     OW 2391   7.227   3.928   3.279  0.0167 -0.2214 -0.2457
  600SOL    HW1 2392   7.266   3.955   3.196 -0.5716  0.0290 -0.4452
  600SOL    HW2 2393   7.197   4.010   3.319  0.3800 -0.3293  0.2586
  601SOL     OW 2394   1.864   1.512   0.000  0.2596  0.2528 -0.7380
  601SOL    HW1 2395   1.825   1.482  -0.082 -1.8798  1.3237 -0.1731
  601SOL    HW2 2396   1.900   1.433   0.039  0.5296 -0.4254 -2.2765
  602SOL     OW 2397   1.216   1.933   2.069  0.2019 -0.6007 -0.0732
  602SOL    HW1 2398   1.188   1.984   1.993  1.0049 -0.3466 -0.2091
  602SOL    HW2 2399   1.231   1.845   2.034  1.9249 -0.1537 -0.5174
  603SOL     OW 2400   1.285   3.085   0.445 -0.0015 -0.3601  0.1189
  603SOL    HW1 2401   1.206   3.095   0.499  0.7283  0.0810  1.1454
  603SOL    HW2 2402   1.260   3.119   0.359 -0.3152  1.8992  1.0210
  604SOL     OW 2403   0.843   3.057   0.914 -0.1628 -0.1586 -0.5720
  604SOL    HW1 2404   0.807   3.103   0.990 -2.4813 -1.3912 -0.8462
  604SOL    HW2 2405   0.910   2.999   0.950 -0.1970  0.3231  0.3054
  605SOL     OW 2406   0.678   1.858   3.435 -0.0068  0.0278 -0.2688
  605SOL    HW1 2407   0.687   1.952   3.453 -0.2781 -0.0122  0.0833
  605SOL    HW2 2408   0.708   1.816   3.516  0.0108 -0.1875 -0.3883
  606SOL     OW 2409   1.684   2.484   1.041  0.3989  0.0272  0.1414
  606SOL    HW1 2410   1.749   2.415   1.027  0.1183 -0.2246  0.0876
  606SOL    HW2 2411   1.647   2.466   1.128 -0.8594 -0.8693 -0.5532
  607SOL     OW 2412   1.358   3.051   1.644  0.3071 -0.2404 -0.0382
  607SOL    HW1 2413   1.316   3.137   1.639  0.7305 -0.1068 -1.7145
  607SOL    HW2 2414   1.445   3.068   1.680 -0.4118 -0.3013  1.8340
  608SOL     OW 2415   0.399   2.044   0.194  0.7973 -0.7941  0.0295
  608SOL    HW1 2416   0.397   2.089   0.109 -1.1586 -1.2338 -0.1967
  608SOL    HW2 2417   0.317   1.994   0.197  0.4008 -0.1141  2.5526
  609SOL     OW 2418   0.513   3.709   1.796  0.3160  0.1328 -0.5760
  609SOL    HW1 2419   0.538   3.733   1.706 -1.4525  1.2472 -0.8180
  609SOL    HW2 2420   0.571   3.760   1.851  0.9758 -0.0592 -1.0704
  610SOL     OW 2421   0.729   2.342   1.089 -0.2837  0.2954 -0.2438
  610SOL    HW1 2422   0.810   2.335   1.140 -1.0274  1.3271  1.1431
  610SOL    HW2 2423   0.758   2.332   0.998  1.3933  0.6024  0.2075
  611SOL     OW 2424   7.416   4.012   2.692 -0.3267  0.4936 -0.4173
  611SOL    HW1 2425   7.468   3.974   2.763  0.0855  1.8178  0.0200
  611SOL    HW2 2426   7.426   3.951   2.619 -2.0071 -1.7496  1.0565
  612SOL     OW 2427   6.773   1.476   1.995 -0.0688  0.2142  0.4556
  612SOL    HW1 2428   6.859   1.466   2.036  0.4270  0.3140 -0.5149
  612SOL    HW2 2429   6.724   1.533   2.054 -0.1192 -1.3436  1.9600
  613SOL     OW 2430   7.052   3.203   1.182  0.1725  0.6729  0.3750
  613SOL    HW1 2431   6.984   3.147   1.145  0.3088 -0.1193  1.2786
  613SOL    HW2 2432   7.008   3.286   1.200 -0.1400  0.7168 -0.5643
  614SOL     OW 2433   1.470   3.545   0.627  0.0540  0.5379 -0.1699
  614SOL    HW1 2434   1.459   3.453   0.652  0.4565  0.4600 -0.2734
  614SOL    HW2 2435   1.408   3.592   0.682  0.5977  0.3201  0.6484
  615SOL     OW 2436   1.644   3.303   2.272 -0.2387 -0.3168  0.1535
  615SOL    HW1 2437   1.599   3.374   2.228 -0.2696 -1.4047 -1.6466
  615SOL    HW2 2438   1.576   3.239   2.292  0.0174 -0.5372  0.3351
  616SOL     OW 2439   0.571   2.297   2.133 -0.1047 -0.8949  0.2470
  616SOL    HW1 2440   0.504   2.236   2.164 -0.4380 -0.4821  0.3554
  616SOL    HW2 2441   0.610   2.332   2.214  1.0593 -2.0028  0.1917
  617SOL     OW 2442   1.394   3.314   1.989  0.7063  0.0258  0.2055
  617SOL    HW1 2443   1.303   3.315   1.957  0.4817  0.3360  0.8298
  617SOL    HW2 2444   1.386   3.295   2.082  1.3536 -0.9183  0.0851
  618SOL     OW 2445   0.666   2.933   2.165 -0.6418 -0.9570 -0.4410
  618SOL    HW1 2446   0.591   2.927   2.224  0.3675 -2.5092  0.7913
  618SOL    HW2 2447   0.635   2.895   2.083 -1.3982 -0.9607 -0.1641
  619SOL     OW 2448   7.258   2.774   1.961 -0.3172 -0.0148 -0.1039
  619SOL    HW1 2449   7.341   2.754   2.004 -0.0364 -0.8672 -1.0085
  619SOL    HW2 2450   7.277   2.852   1.909 -0.1913  0.0341  0.0146
  620SOL     OW 2451   2.073   3.334   2.314  0.3932  0.1614  0.4011
  620SOL    HW1 2452   2.168   3.347   2.321  0.1908  1.7116  0.6773
  620SOL    HW2 2453   2.064   3.256   2.259  1.8258 -0.3155  0.7851
  621SOL     OW 2454   0.133   1.708   2.901  0.2079  0.3776  0.5357
  621SOL    HW1 2455   0.110   1.800   2.913  0.7226  0.7374 -0.9469
  621SOL    HW2 2456   0.159   1.678   2.988 -2.6115  0.8280  1.6229
  622SOL     OW 2457   1.597   2.952   1.922  0.0503  0.2311 -0.3700
  622SOL    HW1 2458   1.599   2.894   1.999 -0.8028 -0.0933 -0.5806
  622SOL    HW2 2459   1.664   3.017   1.940 -0.2955  0.3040  0.7779
  623SOL     OW 2460   0.188   3.002   0.398 -0.4191  0.2139  0.0898
  623SOL    HW1 2461   0.266   2.960   0.435 -0.7793 -0.6213 -0.0770
  623SOL    HW2 2462   0.135   2.929   0.364 -0.0992  0.9385 -2.0982
  624SOL     OW 2463   6.790   3.620   2.675 -0.1794  0.2092  0.3533
  624SOL    HW1 2464   6.764   3.711   2.662 -0.9516 -0.1063 -0.3596
  624SOL    HW2 2465   6.755   3.598   2.762  1.2510  1.0047  1.1739
  625SOL     OW 2466   0.984   1.811   1.593 -0.0242 -0.1806  0.1340
  625SOL    HW1 2467   0.969   1.781   1.683  0.6265  1.1620  0.7173
  625SOL    HW2 2468   0.897   1.837   1.562 -0.5088 -1.9740 -0.1794
  626SOL     OW 2469   0.337   3.987   3.381 -0.3473  0.0047  0.9065
  626SOL    HW1 2470   0.308   3.943   3.461 -1.5697  0.2961  0.6382
  626SOL    HW2 2471   0.305   4.077   3.389 -0.8700 -0.0742 -0.0988
  627SOL     OW 2472   7.436   2.042   1.162 -0.1594  0.2556 -0.1232
  627SOL    HW1 2473   7.472   2.058   1.075 -0.9966 -0.4834 -0.6313
  627SOL    HW2 2474   7.482   2.103   1.219  0.2395  0.9219 -1.1242
  628SOL     OW 2475   0.565   1.893   2.052 -0.2695 -0.0281  0.4200
  628SOL    HW1 2476   0.546   1.840   1.975 -0.9851 -0.3010  0.7766
  628SOL    HW2 2477   0.644   1.943   2.028 -1.3168  1.0027 -1.0451
  629SOL     OW 2478   7.043   1.667   1.848 -0.1466  0.1538  0.4734
  629SOL    HW1 2479   7.114   1.712   1.803  0.4178 -2.4075 -1.4105
  629SOL    HW2 2480   6.964   1.689   1.799  0.0828 -0.5962 -0.2557
  630SOL     OW 2481   2.117   3.574   2.876 -0.5710  0.0662  0.2294
  630SOL    HW1 2482   2.047   3.511   2.861 -0.5362 -0.0852  0.6870
  630SOL    HW2 2483   2.085   3.656   2.838 -1.1349  0.0760  0.7052
  631SOL     OW 2484   6.354   3.133   0.900  0.8177  0.0812  0.1047
  631SOL    HW1 2485   6.282   3.189   0.928  0.7040  0.3784 -0.7654
  631SOL    HW2 2486   6.324   3.092   0.819  1.5366  0.0496 -0.1586
  632SOL     OW 2487   1.138   2.799   0.103  0.2219 -1.0793 -0.1590
  632SOL    HW1 2488   1.131   2.853   0.024  1.1016 -0.6977  0.0059
  632SOL    HW2 2489   1.079   2.840   0.166  2.0344  0.6785  0.4859
  633SOL     OW 2490   2.464   2.470   3.026 -0.1181 -0.3856  0.0262
  633SOL    HW1 2491   2.387   2.518   2.997  1.3868  1.2969 -1.4389
  633SOL    HW2 2492   2.443   2.442   3.115 -1.9567  1.0194  0.0880
  634SOL     OW 2493   7.265   3.262   3.065  0.4559  0.2312  0.0366
  634SOL    HW1 2494   7.311   3.267   3.149 -0.8730 -0.8069  0.8591
  634SOL    HW2 2495   7.267   3.352   3.031  2.4435  0.3552  0.3627
  635SOL     OW 2496   6.422   4.794   3.298 -0.1523 -0.0661 -0.3980
  635SOL    HW1 2497   6.440   4.864   3.361 -2.5909  1.5603 -1.3490
  635SOL    HW2 2498   6.329   4.775   3.310 -0.4232 -0.4750 -2.7364
  636SOL     OW 2499   2.504   3.305   2.939  0.1203 -0.3654 -0.0687
  636SOL    HW1 2500   2.427   3.316   2.883  0.3452 -1.2642 -0.5717
  636SOL    HW2 2501   2.475   3.332   3.026 -0.4235  0.4142 -0.4866
  637SOL     OW 2502   0.247   0.899   2.174 -0.0638 -0.6537 -0.1001
  637SOL    HW1 2503   0.282   0.812   2.154  2.7298 -0.5098  3.2891
  637SOL    HW2 2504   0.320   0.959   2.158 -1.1022  0.7288  0.1498
  638SOL     OW 2505   0.664   2.962   2.753 -0.0853 -0.2506 -0.1270
  638SOL    HW1 2506   0.574   2.933   2.733 -0.6002  0.9505  0.3390
  638SOL    HW2 2507   0.667   3.052   2.721  0.2833  0.4355  1.7221
  639SOL     OW 2508   1.774   1.788   1.480  0.1550  0.2944 -0.1324
  639SOL    HW1 2509   1.734   1.772   1.394  2.2811  0.4524 -1.2290
  639SOL    HW2 2510   1.766   1.883   1.492 -0.4552  0.2268  0.0165
  640SOL     OW 2511   2.707   4.647   0.617  0.2134 -0.2623  0.1738
  640SOL    HW1 2512   2.658   4.687   0.689 -1.1840 -0.7782 -0.4527
  640SOL    HW2 2513   2.783   4.704   0.605  0.0485  0.2793  1.5093
  641SOL     OW 2514   1.429   3.930   2.935  0.7957 -0.7257  0.0522
  641SOL    HW1 2515   1.422   3.939   3.030 -0.2085 -2.0072  0.1289
  641SOL    HW2 2516   1.522   3.915   2.919  0.8806 -1.1879  0.9105
  642SOL     OW 2517   0.380   1.292   1.296 -0.4123 -0.0390 -0.2489
  642SOL    HW1 2518   0.405   1.324   1.209  0.1888  1.3905  0.4161
  642SOL    HW2 2519   0.288   1.270   1.287 -0.3017 -0.1344 -1.3155
  643SOL     OW 2520   0.783   3.050   0.634  0.3931 -0.0873 -0.7703
  643SOL    HW1 2521   0.788   3.061   0.729  0.0681  1.7418 -0.9392
  643SOL    HW2 2522   0.690   3.052   0.614  0.4522 -0.5879 -1.1359
  644SOL     OW 2523   2.684   3.004   2.395  0.6832  0.1791  0.2936
  644SOL    HW1 2524   2.589   3.015   2.408  0.3766 -0.6850 -1.0828
  644SOL    HW2 2525   2.723   3.060   2.462 -0.7958  1.2871  0.2922
  645SOL     OW 2526   0.653   3.053   3.089 -0.1897 -0.2474 -0.4086
  645SOL    HW1 2527   0.634   2.989   3.020 -0.3365 -0.9325  0.2576
  645SOL    HW2 2528   0.590   3.033   3.158  1.0289 -0.6480  0.6143
  646SOL     OW 2529   0.525   3.616   3.098 -0.4761 -0.4014  0.3312
  646SOL    HW1 2530   0.459   3.666   3.049 -0.4285 -0.1589  0.5084
  646SOL    HW2 2531   0.597   3.605   3.037 -0.8482 -1.0322 -0.0012
  647SOL     OW 2532   0.776   2.373   0.072  0.5215  0.0585 -0.0790
  647SOL    HW1 2533   0.698   2.386   0.126  1.1090  0.0152  0.8125
  647SOL    HW2 2534   0.833   2.447   0.094  1.4072 -0.7847  0.5370
  648SOL     OW 2535   6.450   1.765   1.036 -0.0956 -0.0286  0.3937
  648SOL    HW1 2536   6.370   1.719   1.010 -1.5159  2.2521  0.4473
  648SOL    HW2 2537   6.464   1.739   1.127 -2.7281  1.9358  1.5016
  649SOL     OW 2538   7.179   2.148   1.052  0.8487 -0.2761 -0.5444
  649SOL    HW1 2539   7.257   2.096   1.075  0.2548 -1.0336 -0.2098
  649SOL    HW2 2540   7.108   2.084   1.051  0.3064  0.3260 -1.3261
  650SOL     OW 2541   0.651   3.908   3.490 -0.4132  0.2264  0.3226
  650SOL    HW1 2542   0.639   3.976   3.556 -1.3835  0.8451 -0.4663
  650SOL    HW2 2543   0.573   3.853   3.498 -0.6759  0.4765 -0.5075
  651SOL     OW 2544   0.495   3.237   0.805  0.1764  0.0918 -0.2678
  651SOL    HW1 2545   0.461   3.196   0.885  1.9590  1.1856  1.1122
  651SOL    HW2 2546   0.444   3.318   0.797  0.0045 -0.0127 -0.2524
  652SOL     OW 2547   0.247   3.828   0.327 -0.1703 -0.3123  0.3208
  652SOL    HW1 2548   0.290   3.894   0.273  0.0458 -0.0059  0.8589
  652SOL    HW2 2549   0.298   3.825   0.408 -0.9235 -0.2205  0.8184
  653SOL     OW 2550   1.701   2.701   2.974  0.4957  0.2715 -0.4519
  653SOL    HW1 2551   1.673   2.756   3.047  0.0093  0.5375 -0.8353
  653SOL    HW2 2552   1.683   2.753   2.896 -1.9866 -1.2271 -0.9807
  654SOL     OW 2553   1.537   3.134   2.924  0.0038 -0.4222 -0.1915
  654SOL    HW1 2554   1.525   3.206   2.862  0.8233 -0.4333 -0.3729
  654SOL    HW2 2555   1.627   3.144   2.955 -0.5149 -0.1503  1.3384
  655SOL     OW 2556   1.128   4.164   2.375  0.2328  0.3355 -0.8619
  655SOL    HW1 2557   1.081   4.207   2.448  1.8406  1.2572 -0.3165
  655SOL    HW2 2558   1.062   4.107   2.335 -1.2877  1.3923  0.0032
  656SOL     OW 2559   2.011   4.406   1.849  0.4132  0.0188 -0.2974
  656SOL    HW1 2560   1.954   4.384   1.776  1.5665  0.3250 -1.3298
  656SOL    HW2 2561   1.956   4.458   1.908 -0.9628 -1.5039 -0.1834
  657SOL     OW 2562   2.196   3.188   2.989  0.4029 -0.2945 -0.1702
  657SOL    HW1 2563   2.104   3.162   2.982 -0.5236  2.5874 -0.0860
  657SOL    HW2 2564   2.223   3.155   3.075 -1.9491  2.2474  1.7837
  658SOL     OW 2565   6.887   2.654   2.291 -0.2592  0.3161 -0.7989
  658SOL    HW1 2566   6.950   2.679   2.224 -0.0861  0.6766 -0.5044
  658SOL    HW2 2567   6.909   2.709   2.367 -0.5941  0.0752 -0.5228
  659SOL     OW 2568   2.171   2.572   2.945 -0.1784  0.5255 -0.3535
  659SOL    HW1 2569   2.112   2.629   2.994  0.6839  1.1578 -0.0308
  659SOL    HW2 2570   2.146   2.483   2.971 -2.5675  0.6158 -2.0092
  660SOL     OW 2571   0.747   3.899   0.997  0.6297  0.1079  0.2400
  660SOL    HW1 2572   0.724   3.991   1.006 -1.9476 -0.4053 -0.2027
  660SOL    HW2 2573   0.771   3.871   1.086  0.7765  1.0560  0.5052
  661SOL     OW 2574   7.281   2.644   3.161 -0.0924 -0.2941  0.5506
  661SOL    HW1 2575   7.191   2.629   3.134  0.6946 -0.9496 -1.9647
  661SOL    HW2 2576   7.326   2.670   3.081  1.8053  0.8632  1.9055
  662SOL     OW 2577   1.858   2.862   2.561  0.6259  0.2212 -0.1977
  662SOL    HW1 2578   1.898   2.797   2.503 -0.3786 -0.5541 -0.0571
  662SOL    HW2 2579   1.805   2.916   2.502 -1.3034 -1.2599  0.0449
  663SOL     OW 2580   0.415   2.908   2.265  0.3855  0.0761  0.0387
  663SOL    HW1 2581   0.390   2.951   2.183  0.8761 -0.2803 -0.3034
  663SOL    HW2 2582   0.333   2.898   2.313  0.1408  0.5726 -0.2733
  664SOL     OW 2583   0.214   3.982   1.393  0.4288 -0.1495  0.0035
  664SOL    HW1 2584   0.168   3.961   1.474  1.1896  0.0428  0.4963
  664SOL    HW2 2585   0.259   4.064   1.411  0.7041 -0.1633 -0.5755
  665SOL     OW 2586   1.118   4.025   2.044 -0.1700  0.3942 -0.0275
  665SOL    HW1 2587   1.208   3.991   2.042 -0.8192 -1.3930 -0.2836
  665SOL    HW2 2588   1.126   4.114   2.009  1.3633 -0.1138 -1.0878
  666SOL     OW 2589   7.502   1.784   1.773 -0.0302 -0.2773  0.1314
  666SOL    HW1 2590   7.591   1.787   1.740 -0.2507  0.5046 -0.4001
  666SOL    HW2 2591   7.512   1.783   1.869  0.5653 -1.2941  0.0705
  667SOL     OW 2592   0.559   3.384   1.665  0.0989 -0.2079 -0.1504
  667SOL    HW1 2593   0.488   3.433   1.625 -0.7932 -1.5100 -0.2431
  667SOL    HW2 2594   0.562   3.415   1.755  0.4737  0.9666 -0.5445
  668SOL     OW 2595   1.195   3.612   1.415 -0.3973 -0.2954 -0.4954
  668SOL    HW1 2596   1.198   3.517   1.402  2.0076 -0.2337 -0.6785
  668SOL    HW2 2597   1.222   3.624   1.506  3.2323  0.3212 -1.5036
  669SOL     OW 2598   1.896   3.437   2.733 -0.4749  0.0395  0.1795
  669SOL    HW1 2599   1.914   3.349   2.701 -0.2159  0.0509  0.2909
  669SOL    HW2 2600   1.865   3.485   2.656 -0.9743 -0.2462  0.1928
  670SOL     OW 2601   1.433   1.877   0.645 -0.1468 -0.1715 -0.4328
  670SOL    HW1 2602   1.434   1.844   0.735  2.1176 -0.4667 -0.5172
  670SOL    HW2 2603   1.341   1.899   0.629 -0.8680 -1.5717  1.4046
  671SOL     OW 2604   1.384   2.728   2.887 -0.2657  0.1027 -0.0600
  671SOL    HW1 2605   1.478   2.724   2.867  0.1395 -0.7887  1.7768
  671SOL    HW2 2606   1.344   2.666   2.825  0.2046  1.1529 -1.4610
  672SOL     OW 2607   0.839   4.104   3.395 -0.5398 -0.5894 -0.2311
  672SOL    HW1 2608   0.768   4.044   3.416 -0.4994 -1.2280 -1.8181
  672SOL    HW2 2609   0.900   4.053   3.343 -0.0427  0.5624 -0.8289
  673SOL     OW 2610   2.067   2.336   3.080 -0.0069  0.2487 -0.4195
  673SOL    HW1 2611   2.005   2.290   3.024 -0.3158 -1.6041  1.3286
  673SOL    HW2 2612   2.012   2.392   3.136  0.0343 -0.1370  0.0106
  674SOL     OW 2613   0.887   3.431   1.770  0.0571 -0.0991 -0.3013
  674SOL    HW1 2614   0.849   3.519   1.773 -0.8290 -0.4494 -0.9512
  674SOL    HW2 2615   0.832   3.383   1.708  0.7641 -1.0064 -0.2452
  675SOL     OW 2616   6.606   1.598   0.341  0.3545  0.2534  0.3124
  675SOL    HW1 2617   6.605   1.587   0.246  1.6681  2.3585 -0.0152
  675SOL    HW2 2618   6.573   1.515   0.375 -1.1717 -0.1871 -1.9863
  676SOL     OW 2619   0.497   3.060   1.362 -0.7975 -0.2669 -0.0454
  676SOL    HW1 2620   0.578   3.093   1.401 -1.7602  2.6113 -0.2129
  676SOL    HW2 2621   0.504   2.965   1.369  1.1016 -0.0602  2.9612
  677SOL     OW 2622   1.237   2.783   3.288 -0.0990  0.0655 -0.0726
  677SOL    HW1 2623   1.168   2.722   3.313 -0.3294  0.9580  1.6064
  677SOL    HW2 2624   1.218   2.863   3.338 -0.0158  1.6818 -2.4635
  678SOL     OW 2625   1.297   4.680   2.509 -0.4244 -0.2482 -0.0625
  678SOL    HW1 2626   1.279   4.773   2.500  0.1419 -0.0299  0.8946
  678SOL    HW2 2627   1.299   4.647   2.419  0.0916  0.8081 -0.4572
  679SOL     OW 2628   0.027   2.318   1.269 -0.2274  0.0553  0.4735
  679SOL    HW1 2629   0.062   2.346   1.184  0.4385 -1.2072  0.3050
  679SOL    HW2 2630  -0.051   2.372   1.282 -0.7962 -0.2637 -1.3208
  680SOL     OW 2631   1.710   3.776   2.614  0.8091 -1.1192  0.5848
  680SOL    HW1 2632   1.712   3.686   2.582  0.6364 -1.2217  0.8556
  680SOL    HW2 2633   1.769   3.824   2.557  0.4819 -1.2953  0.0923
  681SOL     OW 2634   1.880   2.645   2.392  0.0453  0.2773 -0.1755
  681SOL    HW1 2635   1.913   2.662   2.304  0.8945  0.0112  0.0826
  681SOL    HW2 2636   1.957   2.651   2.448 -0.5185  0.6211  0.5790
  682SOL     OW 2637   7.369   3.934   2.183  0.1679  0.3563 -0.1205
  682SOL    HW1 2638   7.382   3.857   2.239 -2.0111  0.2312  0.2943
  682SOL    HW2 2639   7.318   3.901   2.109 -2.2887  1.6760  0.9060
  683SOL     OW 2640   0.673   2.038   0.233 -0.8314  0.1592 -0.7086
  683SOL    HW1 2641   0.692   2.078   0.318  1.4826 -1.0124 -0.5941
  683SOL    HW2 2642   0.577   2.036   0.228 -1.1460 -1.5388  2.7877
  684SOL     OW 2643   1.374   2.795   1.874 -0.0149 -0.2179  0.2762
  684SOL    HW1 2644   1.408   2.707   1.892 -2.5326 -1.8537 -2.0836
  684SOL    HW2 2645   1.450   2.852   1.884  1.6281 -2.5425  2.4470
  685SOL     OW 2646   0.028   2.166   1.921  0.1035 -0.4705 -0.0213
  685SOL    HW1 2647   0.065   2.252   1.943 -0.8827 -0.2638  0.9053
  685SOL    HW2 2648   0.087   2.132   1.853  1.7861  0.0024  1.1134
  686SOL     OW 2649   1.820   3.878   0.393 -0.0892  0.1199 -0.1308
  686SOL    HW1 2650   1.773   3.799   0.420 -0.2639  0.5599  0.8999
  686SOL    HW2 2651   1.857   3.914   0.474 -0.2152  1.2237 -0.5341
  687SOL     OW 2652   2.362   3.007   1.670  0.8733 -0.0807  0.5013
  687SOL    HW1 2653   2.406   3.078   1.622 -0.3277 -0.7722 -1.7415
  687SOL    HW2 2654   2.347   3.043   1.757  0.0369  2.5745 -0.6422
  688SOL     OW 2655   2.461   3.458   2.568  0.2041 -0.5270 -0.2229
  688SOL    HW1 2656   2.452   3.534   2.626 -0.6058 -0.3856 -0.5266
  688SOL    HW2 2657   2.374   3.419   2.565  0.2247 -0.5138 -1.3727
  689SOL     OW 2658   0.401   3.804   2.525 -0.0328 -0.0045  0.1420
  689SOL    HW1 2659   0.485   3.764   2.548 -0.3738 -0.0581  1.3746
  689SOL    HW2 2660   0.350   3.733   2.488  0.4164  0.0018 -0.5124
  690SOL     OW 2661   1.444   4.396   2.620 -0.2580 -0.0388 -0.6262
  690SOL    HW1 2662   1.426   4.304   2.639  0.0460 -0.0256 -0.2764
  690SOL    HW2 2663   1.469   4.396   2.527  0.6605 -0.4470 -0.3918
  691SOL     OW 2664   1.216   1.487   1.585 -0.2862 -0.1441 -0.2385
  691SOL    HW1 2665   1.151   1.420   1.566 -1.1192  0.9906 -1.5787
  691SOL    HW2 2666   1.165   1.566   1.603  0.6970  0.4385  0.1042
  692SOL     OW 2667   0.281   1.817   1.906 -0.1410 -0.0449 -0.1266
  692SOL    HW1 2668   0.315   1.742   1.955 -1.0612 -0.4758 -0.1371
  692SOL    HW2 2669   0.202   1.842   1.952  0.1847  0.9672 -0.0947
  693SOL     OW 2670   0.503   2.645   2.346 -0.9490 -1.0996  0.3351
  693SOL    HW1 2671   0.481   2.737   2.336  0.5709 -0.7863 -0.4424
  693SOL    HW2 2672   0.455   2.617   2.424 -1.6993  0.2498  0.3831
  694SOL     OW 2673   7.505   4.438   2.156 -0.4881  0.4732 -0.4095
  694SOL    HW1 2674   7.540   4.462   2.070 -0.4380 -0.5011 -0.6779
  694SOL    HW2 2675   7.430   4.381   2.136 -1.1483  1.1132  0.1850
  695SOL     OW 2676   1.141   3.337   1.869  0.2331  0.1854 -0.2621
  695SOL    HW1 2677   1.125   3.244   1.885  0.1943  0.3651  0.8030
  695SOL    HW2 2678   1.055   3.373   1.848  0.1636  0.0815 -0.1561
  696SOL     OW 2679   1.933   2.651   3.383 -0.0503 -0.2320  0.0330
  696SOL    HW1 2680   1.873   2.637   3.457  0.5511 -0.1359  0.5437
  696SOL    HW2 2681   1.922   2.744   3.362 -0.7333 -0.4119 -0.4602
  697SOL     OW 2682   0.702   0.890   3.050 -0.1675 -0.1828  0.0534
  697SOL    HW1 2683   0.734   0.905   2.961 -1.1758 -1.4272 -0.5572
  697SOL    HW2 2684   0.763   0.937   3.106  0.7149  0.3097 -1.2717
  698SOL     OW 2685   0.489   2.729   1.429 -0.1445  0.4970  0.2392
  698SOL    HW1 2686   0.459   2.748   1.518 -0.4783  3.0768 -0.3438
  698SOL    HW2 2687   0.418   2.677   1.390 -0.2279 -0.2106  1.3097
  699SOL     OW 2688   0.057   3.570   2.008 -0.2674 -0.2609 -0.2592
  699SOL    HW1 2689   0.003   3.497   1.976 -0.1846 -0.1957 -0.5544
  699SOL    HW2 2690   0.133   3.569   1.950 -0.4662  0.3248 -0.5333
  700SOL     OW 2691   1.164   1.590   3.119  0.6899 -0.2485  0.2605
  700SOL    HW1 2692   1.177   1.656   3.051  1.6242 -1.4738 -0.8066
  700SOL    HW2 2693   1.217   1.621   3.193  2.7147 -0.7002 -0.9103
  701SOL     OW 2694   0.281   3.536   0.599 -1.0229 -0.2915 -0.9074
  701SOL    HW1 2695   0.355   3.526   0.540 -1.0942  0.6872 -1.1853
  701SOL    HW2 2696   0.215   3.476   0.565  0.5315 -3.2906  0.9335
  702SOL     OW 2697   0.792   1.724   1.327  0.1192  0.1344 -0.3135
  702SOL    HW1 2698   0.804   1.655   1.392  1.3223  0.7741  0.1806
  702SOL    HW2 2699   0.760   1.799   1.377  0.8919  0.5774 -0.4593
  703SOL     OW 2700   0.539   2.567   2.087  0.5322  0.1721 -0.1986
  703SOL    HW1 2701   0.532   2.591   2.180 -0.5018  1.8351 -0.6768
  703SOL    HW2 2702   0.535   2.471   2.088  0.2098  0.1585  1.4523
  704SOL     OW 2703   2.049   3.752   2.178  0.0424  0.3900  0.2604
  704SOL    HW1 2704   2.058   3.821   2.244  0.4773  0.8740 -0.2937
  704SOL    HW2 2705   2.035   3.799   2.096 -1.1134 -0.2222  0.0896
  705SOL     OW 2706   1.221   3.184   0.170  0.2215 -0.0514  0.2519
  705SOL    HW1 2707   1.147   3.165   0.113  1.6958 -1.5071 -1.3044
  705SOL    HW2 2708   1.202   3.270   0.207 -1.4421  0.3428 -1.3896
  706SOL     OW 2709   0.636   3.185   2.598  0.0198  0.7979 -0.2048
  706SOL    HW1 2710   0.589   3.187   2.515 -2.6085 -1.9095  1.0045
  706SOL    HW2 2711   0.590   3.248   2.653  0.9800  1.6868 -0.3819
  707SOL     OW 2712   0.344   3.773   2.065  0.1456  0.3729 -0.1913
  707SOL    HW1 2713   0.428   3.774   2.020  1.4928  0.0404  2.1498
  707SOL    HW2 2714   0.296   3.701   2.025  1.5596 -0.3755 -0.5957
  708SOL     OW 2715   0.245   4.213   2.481  0.2475 -0.3350  0.5122
  708SOL    HW1 2716   0.279   4.135   2.525 -0.8828  0.0804  2.1927
  708SOL    HW2 2717   0.230   4.184   2.390  4.1069 -0.7815 -0.1494
  709SOL     OW 2718   1.992   2.316   0.323 -0.1409  0.0622  0.9291
  709SOL    HW1 2719   1.899   2.320   0.303 -0.0238 -0.4505  0.2520
  709SOL    HW2 2720   2.005   2.382   0.392 -0.7316  1.2360 -0.0453
  710SOL     OW 2721   1.655   2.367   3.236 -0.5184 -0.0026  0.0603
  710SOL    HW1 2722   1.605   2.440   3.272  0.2348  0.6812 -0.2546
  710SOL    HW2 2723   1.654   2.381   3.141 -2.8530 -2.0257 -0.3038
  711SOL     OW 2724   2.041   2.386   3.449  0.0943 -0.3236 -0.3050
  711SOL    HW1 2725   2.108   2.391   3.517  0.8535 -0.5014 -1.0177
  711SOL    HW2 2726   2.037   2.474   3.412  2.1893 -0.9626 -2.3200
  712SOL     OW 2727   1.635   1.349   1.885 -0.3289 -0.4303  0.2723
  712SOL    HW1 2728   1.643   1.323   1.793  0.6040  3.1878 -0.8565
  712SOL    HW2 2729   1.710   1.310   1.929 -0.9392 -2.4387 -0.3701
  713SOL     OW 2730   0.622   2.395   2.376 -0.4238 -0.4132  0.0624
  713SOL    HW1 2731   0.605   2.484   2.344  1.2286 -0.2390 -0.4794
  713SOL    HW2 2732   0.606   2.399   2.470  1.9315  1.1713  0.4976
  714SOL     OW 2733   0.090   2.533   3.250 -0.0797  0.2884  0.0351
  714SOL    HW1 2734   0.063   2.624   3.244 -0.6152  0.2077  0.9602
  714SOL    HW2 2735   0.186   2.536   3.253 -0.0249  0.7026 -1.4193
  715SOL     OW 2736   1.863   2.961   3.352  0.0017  0.2634  0.3067
  715SOL    HW1 2737   1.905   3.047   3.343  1.3721 -0.5091 -1.1680
  715SOL    HW2 2738   1.806   2.954   3.276 -0.3736 -0.0030  0.6095
  716SOL     OW 2739   0.130   2.816   1.656  0.6035  0.1658 -0.3348
  716SOL    HW1 2740   0.045   2.772   1.651  1.2144 -1.0881 -0.1481
  716SOL    HW2 2741   0.155   2.831   1.565  1.0384 -1.2431 -0.4809
  717SOL     OW 2742   1.638   3.401   2.867 -0.4743  0.5220 -0.7506
  717SOL    HW1 2743   1.675   3.426   2.952  0.0872 -0.2750 -0.7498
  717SOL    HW2 2744   1.703   3.430   2.803 -0.2838 -0.0196 -0.8125
  718SOL     OW 2745   1.512   1.314   3.271 -0.1523 -0.4873 -0.4577
  718SOL    HW1 2746   1.473   1.387   3.318  0.8144 -0.7163  0.7566
  718SOL    HW2 2747   1.446   1.245   3.275 -0.4366 -0.2022 -0.2289
  719SOL     OW 2748   0.985   3.322   2.404 -0.5137  0.3036 -0.0600
  719SOL    HW1 2749   0.990   3.309   2.310  0.9373 -1.5212  0.2113
  719SOL    HW2 2750   1.068   3.365   2.427  0.1364 -1.2063  0.5980
  720SOL     OW 2751   1.412   2.387   1.674 -0.0051 -0.5524 -0.5559
  720SOL    HW1 2752   1.460   2.424   1.601  1.7751 -0.7201  0.4763
  720SOL    HW2 2753   1.320   2.406   1.655  0.6488  2.6385 -1.0571
  721SOL     OW 2754   0.393   2.797   1.699 -0.1178  0.1176 -0.1506
  721SOL    HW1 2755   0.421   2.865   1.760 -0.5174 -0.8906  1.2260
  721SOL    HW2 2756   0.300   2.814   1.683  0.2470  1.0384 -1.4083
  722SOL     OW 2757   1.496   3.781   2.312  0.1288 -0.4473  0.2655
  722SOL    HW1 2758   1.525   3.716   2.248 -1.2223 -2.5274  1.6615
  722SOL    HW2 2759   1.541   3.861   2.286  1.9972 -1.9391 -1.4525
  723SOL     OW 2760   0.244   2.620   2.143  0.4036  0.1514 -0.7003
  723SOL    HW1 2761   0.339   2.629   2.153  0.1706  1.9074  0.3115
  723SOL    HW2 2762   0.213   2.594   2.230 -0.2870  2.4923 -0.1523
  724SOL     OW 2763   0.634   2.340   1.831  0.5247  0.3819  1.0271
  724SOL    HW1 2764   0.600   2.308   1.915  2.3918 -1.2881  1.2193
  724SOL    HW2 2765   0.677   2.423   1.853  2.8865 -1.0670  2.2232
  725SOL     OW 2766   1.885   2.979   2.804  0.5201 -0.1010  0.4055
  725SOL    HW1 2767   1.899   2.905   2.863 -0.0303  0.7030  1.5793
  725SOL    HW2 2768   1.909   2.946   2.718  1.1511 -1.3666  1.0459
  726SOL     OW 2769   0.247   3.956   2.703 -0.2098  0.3275  0.0153
  726SOL    HW1 2770   0.300   3.904   2.643  1.1905  1.7763 -0.0589
  726SOL    HW2 2771   0.305   3.972   2.778 -1.1044  0.5812  0.6653
  727SOL     OW 2772   7.386   5.083   2.231 -0.1905  0.7413  0.7083
  727SOL    HW1 2773   7.299   5.052   2.208  0.6000 -1.3482  0.3194
  727SOL    HW2 2774   7.445   5.034   2.174  1.2390  2.4717  0.6129
  728SOL     OW 2775   7.059   3.601   2.650 -0.0895  0.2312 -0.4592
  728SOL    HW1 2776   6.966   3.617   2.637 -0.1143  0.1356 -0.4022
  728SOL    HW2 2777   7.100   3.688   2.644  0.0075  0.1056 -1.9994
  729SOL     OW 2778   0.308   3.061   2.081  0.3323 -0.0737 -0.4728
  729SOL    HW1 2779   0.275   3.014   2.004  0.9691 -1.5005  0.0871
  729SOL    HW2 2780   0.231   3.103   2.118 -0.2832 -0.7584 -0.9466
  730SOL     OW 2781   7.273   2.106   1.942 -0.0509  0.7852  0.5366
  730SOL    HW1 2782   7.235   2.103   1.854  1.1514 -0.4686  0.0251
  730SOL    HW2 2783   7.358   2.148   1.931  0.8296 -0.8685  0.7801
  731SOL     OW 2784   0.117   2.958   1.886  0.2382 -0.4965  0.0955
  731SOL    HW1 2785   0.053   2.903   1.929  1.3294 -2.2212 -0.3854
  731SOL    HW2 2786   0.110   2.936   1.793  0.2162  0.7126 -0.2097
  732SOL     OW 2787   1.635   3.008   2.421 -0.2839 -0.0157 -0.0238
  732SOL    HW1 2788   1.588   3.013   2.337  0.3801  2.7523 -0.3517
  732SOL    HW2 2789   1.575   3.047   2.484  0.3030  0.5467  0.1976
  733SOL     OW 2790   0.628   4.921   1.801  0.1653  0.4923  0.3695
  733SOL    HW1 2791   0.559   4.903   1.865  0.1549 -1.0790 -0.0481
  733SOL    HW2 2792   0.707   4.883   1.839  0.7843  2.0934  0.7446
  734SOL     OW 2793   7.459   2.511   2.942  0.2408  0.0329 -0.5488
  734SOL    HW1 2794   7.553   2.518   2.958  0.3495 -1.2466 -0.4923
  734SOL    HW2 2795   7.437   2.590   2.892  1.0399  1.0778  0.6963
  735SOL     OW 2796   0.202   3.550   1.355 -0.2600  0.1459  0.5105
  735SOL    HW1 2797   0.240   3.638   1.348 -0.1705  0.1183  0.6387
  735SOL    HW2 2798   0.261   3.495   1.302  1.0252 -0.2549  2.2715
  736SOL     OW 2799   0.768   3.338   2.160 -0.9387 -0.7874  0.6307
  736SOL    HW1 2800   0.760   3.249   2.127  0.0705 -1.6913  2.6090
  736SOL    HW2 2801   0.858   3.363   2.141 -1.4633  0.2172 -0.7258
  737SOL     OW 2802   6.987   3.189   0.413 -0.1212 -0.1228  0.1337
  737SOL    HW1 2803   6.966   3.275   0.451  0.8358 -0.0657  0.5485
  737SOL    HW2 2804   6.906   3.139   0.420 -0.6351  0.6835  0.0611
  738SOL     OW 2805   1.430   2.872   0.145  0.1734 -0.0352  0.1477
  738SOL    HW1 2806   1.448   2.782   0.115  0.2470 -0.2887  0.9222
  738SOL    HW2 2807   1.343   2.891   0.112 -0.2161 -0.7401  0.7301
  739SOL     OW 2808   1.315   2.862   0.845  0.0493  0.2233 -0.2542
  739SOL    HW1 2809   1.288   2.947   0.882  0.2427 -0.5300  1.7471
  739SOL    HW2 2810   1.235   2.810   0.846 -0.3584  0.6985 -2.6272
  740SOL     OW 2811   1.797   4.347   0.732  0.1838 -0.2969  0.1593
  740SOL    HW1 2812   1.740   4.411   0.689 -0.2450  0.6462  2.0016
  740SOL    HW2 2813   1.884   4.388   0.732  0.2404 -0.4144 -0.0195
  741SOL     OW 2814   0.900   3.848   0.143  0.7651 -0.4647  0.1157
  741SOL    HW1 2815   0.979   3.903   0.148  1.3282 -0.8484 -2.8826
  741SOL    HW2 2816   0.849   3.886   0.072  0.0051 -2.3637 -0.4008
  742SOL     OW 2817   6.721   3.394   1.879  0.1527  0.0942 -0.5656
  742SOL    HW1 2818   6.778   3.442   1.818  2.1023 -1.0541  0.2556
  742SOL    HW2 2819   6.731   3.440   1.963 -2.3009  1.4962 -0.9205
  743SOL     OW 2820   2.643   2.158   1.961 -0.0775  0.6778 -0.3134
  743SOL    HW1 2821   2.614   2.222   2.025  1.7736  2.1616 -0.8455
  743SOL    HW2 2822   2.729   2.190   1.933  0.8286 -1.9276 -0.7954
  744SOL     OW 2823   2.798   4.044   3.161 -0.4930 -0.2807  0.2024
  744SOL    HW1 2824   2.803   3.960   3.116 -2.7075 -0.5932  0.4581
  744SOL    HW2 2825   2.782   4.108   3.091  1.3290 -0.0027 -0.0092
  745SOL     OW 2826   2.363   3.143   2.462  0.0809 -0.3583  0.2789
  745SOL    HW1 2827   2.334   3.142   2.553 -1.1536  2.4071  0.0428
  745SOL    HW2 2828   2.297   3.092   2.415 -0.4872 -0.0001  0.6759
  746SOL     OW 2829   0.505   3.553   0.448  0.1773  0.1261  0.0002
  746SOL    HW1 2830   0.569   3.623   0.441  0.1188  0.0399 -1.8141
  746SOL    HW2 2831   0.557   3.473   0.445  0.0158 -0.0085 -3.2073
  747SOL     OW 2832   1.076   3.803   2.362 -0.4881  0.2055 -0.4420
  747SOL    HW1 2833   1.080   3.828   2.454  1.5683 -0.1447 -0.3910
  747SOL    HW2 2834   0.987   3.826   2.335 -1.4847 -0.6448  1.8694
  748SOL     OW 2835   0.651   3.996   3.021 -0.1552  0.1004  0.5228
  748SOL    HW1 2836   0.730   3.944   3.005  0.0904  0.8823 -0.8899
  748SOL    HW2 2837   0.682   4.070   3.072  0.1499  0.7070 -0.5193
  749SOL     OW 2838   1.641   2.751   2.717  0.2556  0.3098  0.2805
  749SOL    HW1 2839   1.711   2.754   2.651 -0.1996 -1.5061 -0.3392
  749SOL    HW2 2840   1.563   2.727   2.668 -0.5749  1.1376  1.1635
  750SOL     OW 2841   7.219   2.589   1.757 -0.1003  0.2307  0.1514
  750SOL    HW1 2842   7.221   2.652   1.829 -0.6434  1.0166 -0.5131
  750SOL    HW2 2843   7.274   2.628   1.689 -1.8247  0.8601 -0.9437
  751SOL     OW 2844   1.299   4.003   2.489 -0.1629 -0.5250  0.2391
  751SOL    HW1 2845   1.223   4.060   2.474 -1.4631 -1.9429  1.1454
  751SOL    HW2 2846   1.279   3.923   2.441  0.9432 -0.7925  0.1983
  752SOL     OW 2847   0.569   3.461   2.652 -0.1930  0.1582 -0.5020
  752SOL    HW1 2848   0.485   3.507   2.655  1.3907  3.2436  1.0524
  752SOL    HW2 2849   0.606   3.485   2.567 -0.4703 -0.4654 -0.8059
  753SOL     OW 2850   0.041   4.860   1.784  0.0912 -0.0353 -0.1456
  753SOL    HW1 2851   0.008   4.786   1.732 -0.8902  0.9269 -0.9401
  753SOL    HW2 2852   0.122   4.886   1.741 -0.4053  0.3687 -0.8684
  754SOL     OW 2853   0.661   4.974   0.885  0.0225  1.0331 -0.4036
  754SOL    HW1 2854   0.734   4.923   0.922  0.1302  0.7239 -1.0340
  754SOL    HW2 2855   0.619   4.914   0.823 -0.5392  1.3376 -0.3226
  755SOL     OW 2856   0.139   4.590   2.622 -0.0528 -0.1364 -0.3033
  755SOL    HW1 2857   0.177   4.589   2.534  1.4722 -0.3028  0.3243
  755SOL    HW2 2858   0.120   4.498   2.641  1.2574 -0.3251  0.1920
  756SOL     OW 2859   1.730   2.633   0.348 -0.0461 -0.1970 -0.1177
  756SOL    HW1 2860   1.824   2.624   0.332 -0.1063  0.3086 -0.7956
  756SOL    HW2 2861   1.713   2.727   0.344 -0.3895 -0.1832  1.1854
  757SOL     OW 2862   1.484   2.586   3.328 -0.1116  0.1386 -0.2691
  757SOL    HW1 2863   1.430   2.650   3.281 -0.1758  0.2050 -0.1077
  757SOL    HW2 2864   1.495   2.624   3.415  0.8279  0.4887 -0.5288
  758SOL     OW 2865   0.585   2.788   1.937  0.6436 -0.1219  0.0787
  758SOL    HW1 2866   0.563   2.753   1.851 -0.0303  0.3845  0.0391
  758SOL    HW2 2867   0.574   2.713   1.996 -0.7619 -0.0177 -0.0116
  759SOL     OW 2868   7.452   3.501   3.209  0.6475 -0.2777  0.7300
  759SOL    HW1 2869   7.462   3.407   3.226  1.0474 -0.0163  2.0513
  759SOL    HW2 2870   7.427   3.538   3.294  0.8770  0.8637  0.3129
  760SOL     OW 2871   2.169   2.861   2.717  0.1926 -0.3292  0.0709
  760SOL    HW1 2872   2.253   2.833   2.755  0.2277 -0.0585  0.1993
  760SOL    HW2 2873   2.107   2.853   2.789 -0.0071 -1.0613 -0.1783
  761SOL     OW 2874   0.103   3.945   1.659 -0.2395 -0.3626 -0.0206
  761SOL    HW1 2875   0.050   4.013   1.700  0.2645 -0.9498  1.6685
  761SOL    HW2 2876   0.047   3.868   1.658  0.4245 -0.8775  1.4025
  762SOL     OW 2877   7.084   3.816   1.376 -0.3675 -0.0342 -0.6648
  762SOL    HW1 2878   7.012   3.799   1.315  1.2965  0.4578 -2.8982
  762SOL    HW2 2879   7.100   3.910   1.368  1.3557 -0.3493 -1.2185
  763SOL     OW 2880   0.527   1.501   2.774  0.1204  0.1036  0.2860
  763SOL    HW1 2881   0.567   1.433   2.828 -0.3180 -0.7651 -0.4643
  763SOL    HW2 2882   0.510   1.459   2.690  0.8298  1.4482 -0.5610
  764SOL     OW 2883   0.390   2.130   1.522  0.1718  0.4140  0.1228
  764SOL    HW1 2884   0.413   2.058   1.463 -0.1361  1.3044 -1.1260
  764SOL    HW2 2885   0.296   2.140   1.512 -0.2997 -0.8381  2.4789
  765SOL     OW 2886   0.636   2.797   0.393  0.2024  0.0643 -0.0546
  765SOL    HW1 2887   0.691   2.767   0.466  0.7099  0.6488 -0.1857
  765SOL    HW2 2888   0.696   2.808   0.320 -0.3617 -0.8537 -0.6823
  766SOL     OW 2889   0.140   1.798   1.210  0.2722  0.5766  0.4560
  766SOL    HW1 2890   0.177   1.872   1.162 -1.5943 -0.2984 -2.6745
  766SOL    HW2 2891   0.051   1.826   1.233 -0.6254 -0.6849 -1.1699
  767SOL     OW 2892   0.814   3.885   0.718  0.0179 -0.3630 -0.2844
  767SOL    HW1 2893   0.791   3.897   0.810  0.4688  0.8268 -0.3147
  767SOL    HW2 2894   0.782   3.797   0.696  1.4376 -1.3811  1.4806
  768SOL     OW 2895   1.847   3.895   3.166 -0.6300  0.2277 -0.2241
  768SOL    HW1 2896   1.931   3.936   3.187 -0.2371 -0.5571 -0.2176
  768SOL    HW2 2897   1.782   3.965   3.177  0.0129  0.8207 -0.1585
  769SOL     OW 2898   2.493   3.891   2.661 -0.3833  0.2135 -0.0811
  769SOL    HW1 2899   2.588   3.876   2.656 -0.6471 -1.4059 -0.7873
  769SOL    HW2 2900   2.471   3.933   2.578 -0.0562  2.2754  0.8084
  770SOL     OW 2901   0.964   3.230   0.027  0.2569 -0.4031  0.1922
  770SOL    HW1 2902   0.959   3.299  -0.039 -1.3234  1.1652  1.8358
  770SOL    HW2 2903   0.905   3.162  -0.005  0.7954 -0.4309 -0.7893
  771SOL     OW 2904   7.483   5.026   3.293 -0.0111  0.6101  0.0531
  771SOL    HW1 2905   7.516   5.042   3.381  0.5227  1.9091 -0.3548
  771SOL    HW2 2906   7.561   5.031   3.237 -0.1528 -1.3687 -0.3929
  772SOL     OW 2907   0.905   2.893   2.266 -0.2933 -0.8087 -0.1244
  772SOL    HW1 2908   0.885   2.958   2.334  0.3522 -0.3435 -0.3767
  772SOL    HW2 2909   0.821   2.877   2.223 -0.4152  0.0578 -0.2321
  773SOL     OW 2910   1.736   2.800   1.726  0.2746  0.1075  0.5383
  773SOL    HW1 2911   1.734   2.844   1.641  2.4921  0.4906  0.6287
  773SOL    HW2 2912   1.692   2.861   1.785 -0.2180  0.3768 -0.0964
  774SOL     OW 2913   0.375   4.009   2.176 -0.6250  0.9149 -0.1883
  774SOL    HW1 2914   0.297   4.060   2.156 -1.1197 -0.3204 -1.5688
  774SOL    HW2 2915   0.357   3.922   2.140  1.1501  0.4365 -0.0181
  775SOL     OW 2916   1.680   1.714   2.458 -0.9736 -0.7333  0.3765
  775SOL    HW1 2917   1.712   1.646   2.518 -0.5372 -2.1073 -1.3082
  775SOL    HW2 2918   1.589   1.690   2.441 -1.9690  1.1790  2.4504
  776SOL     OW 2919   0.290   4.527   0.889 -0.4187 -0.2223 -0.2757
  776SOL    HW1 2920   0.281   4.468   0.964  1.0084  0.5380  0.5333
  776SOL    HW2 2921   0.346   4.479   0.828 -1.4505 -0.7742 -0.8357
  777SOL     OW 2922   0.371   2.541   3.231 -0.1479 -0.4424 -0.0884
  777SOL    HW1 2923   0.411   2.559   3.145  0.0220 -1.3788 -0.2195
  777SOL    HW2 2924   0.432   2.579   3.294  0.5373 -1.1218 -0.3269
  778SOL     OW 2925   1.455   2.606   0.070 -0.5711  0.2287  0.0045
  778SOL    HW1 2926   1.503   2.529   0.099  0.5996  1.2094  0.7685
  778SOL    HW2 2927   1.363   2.580   0.074 -0.1765 -1.2754 -0.2484
  779SOL     OW 2928   2.102   2.961   1.517  0.3298 -0.2101  0.0643
  779SOL    HW1 2929   2.139   2.931   1.433 -0.0422  2.3948 -1.1333
  779SOL    HW2 2930   2.178   2.970   1.574  0.4168 -3.8334  0.7686
  780SOL     OW 2931   2.278   3.051   1.932  0.0046  0.2817 -0.0271
  780SOL    HW1 2932   2.198   3.032   1.981  0.3727  1.4109  1.0899
  780SOL    HW2 2933   2.343   2.992   1.970  0.0149  0.3403  0.0481
  781SOL     OW 2934   7.256   2.992   3.235  0.6289 -0.6922  0.0811
  781SOL    HW1 2935   7.165   2.988   3.262  0.1480  0.0676 -1.3218
  781SOL    HW2 2936   7.286   3.079   3.262  0.7858 -0.7547  0.1092
  782SOL     OW 2937   0.762   4.232   3.137 -0.2470  0.3949  0.5014
  782SOL    HW1 2938   0.781   4.215   3.229 -0.1959  0.1053  0.4369
  782SOL    HW2 2939   0.677   4.276   3.138 -0.4079  0.0845  0.6639
  783SOL     OW 2940   1.430   2.455   2.204  0.3656  0.7663  0.7620
  783SOL    HW1 2941   1.467   2.537   2.237 -0.5253  1.1828  0.7425
  783SOL    HW2 2942   1.492   2.388   2.233  0.9495  1.4047  1.0328
  784SOL     OW 2943   0.322   1.244   0.892 -0.3174  0.9337 -0.1267
  784SOL    HW1 2944   0.235   1.280   0.904  0.0527  2.2073 -1.0678
  784SOL    HW2 2945   0.320   1.160   0.938 -1.8981  1.1283  0.2040
  785SOL     OW 2946   1.714   2.934   3.142 -0.2717 -0.0991 -0.2302
  785SOL    HW1 2947   1.619   2.921   3.139 -0.2637 -0.3013 -3.6154
  785SOL    HW2 2948   1.728   3.017   3.096  1.2185 -0.1804  0.0318
  786SOL     OW 2949   0.221   2.640   2.949 -0.6312  0.1362 -0.5808
  786SOL    HW1 2950   0.314   2.619   2.948 -0.7174 -0.2654 -1.6654
  786SOL    HW2 2951   0.215   2.720   3.001  0.2845  0.0209 -0.2818
  787SOL     OW 2952   0.175   3.255   2.853 -0.0756 -0.1841 -0.2451
  787SOL    HW1 2953   0.164   3.350   2.860  1.8241  0.0350  0.1144
  787SOL    HW2 2954   0.176   3.223   2.943 -0.2618 -0.5059 -0.3524
  788SOL     OW 2955   1.488   1.551   1.543  0.0475 -0.1986 -0.3467
  788SOL    HW1 2956   1.409   1.517   1.584 -0.2958  2.2488  1.1951
  788SOL    HW2 2957   1.457   1.594   1.463  0.3193 -2.2008 -1.5891
  789SOL     OW 2958   0.627   2.386   3.384 -0.1933  0.1012 -0.0230
  789SOL    HW1 2959   0.678   2.363   3.461  2.0844  1.7223 -0.9377
  789SOL    HW2 2960   0.616   2.481   3.390 -0.9773  0.1075 -1.1415
  790SOL     OW 2961   1.375   2.001   1.265  0.4721 -0.4667 -0.6823
  790SOL    HW1 2962   1.312   2.073   1.266  0.7296 -0.2419 -0.5241
  790SOL    HW2 2963   1.339   1.937   1.326 -0.6667 -1.2631 -2.1280
  791SOL     OW 2964   7.005   4.637   3.114 -0.1528  0.5816  0.1943
  791SOL    HW1 2965   7.039   4.710   3.063 -0.6252  0.6444 -0.0365
  791SOL    HW2 2966   6.952   4.587   3.051  0.5560 -0.2297  0.2231
  792SOL     OW 2967   1.982   1.236   0.521  0.6351  0.2219 -0.1921
  792SOL    HW1 2968   1.980   1.288   0.442  1.5575 -2.1121 -1.8682
  792SOL    HW2 2969   2.051   1.275   0.574 -0.1295  1.9332 -0.4136
  793SOL     OW 2970   0.879   3.424   3.358 -0.7642  0.5791 -0.4715
  793SOL    HW1 2971   0.822   3.500   3.367 -0.2229  1.5375 -3.8255
  793SOL    HW2 2972   0.845   3.376   3.283  0.2204 -1.3309  0.2073
  794SOL     OW 2973   1.581   2.239   2.297  0.2805  0.3514 -0.3069
  794SOL    HW1 2974   1.533   2.159   2.277  0.9742 -0.3593  0.7697
  794SOL    HW2 2975   1.672   2.211   2.307  0.8611  1.5790 -1.7119
  795SOL     OW 2976   6.353   2.745   1.251  0.4457  0.0838 -0.1139
  795SOL    HW1 2977   6.435   2.795   1.257  0.3537  0.3827 -1.2037
  795SOL    HW2 2978   6.375   2.668   1.199  0.3222 -0.4780  0.6461
  796SOL     OW 2979   6.875   4.584   2.864 -0.3576  0.7838  0.1531
  796SOL    HW1 2980   6.847   4.496   2.837  0.0080  1.0614 -1.2076
  796SOL    HW2 2981   6.848   4.641   2.792 -0.1485  1.7186  0.7979
  797SOL     OW 2982   7.462   3.600   1.092  0.0123  0.1666  0.3271
  797SOL    HW1 2983   7.508   3.527   1.051 -1.2131  0.5437 -1.8395
  797SOL    HW2 2984   7.473   3.673   1.032 -2.7570  0.4537  0.0253
  798SOL     OW 2985   0.276   3.127   1.197  0.5510  1.0982  0.2128
  798SOL    HW1 2986   0.355   3.120   1.249  1.6516  0.6714 -1.4447
  798SOL    HW2 2987   0.266   3.221   1.180  0.8838  1.1237  0.1592
  799SOL     OW 2988   5.887   2.728   0.301 -0.2197  0.6999  0.0814
  799SOL    HW1 2989   5.978   2.706   0.282 -0.5982 -0.6195 -0.3130
  799SOL    HW2 2990   5.836   2.664   0.251 -1.4081  2.3549 -0.9371
  800SOL     OW 2991   7.360   4.904   1.037  0.4259 -0.3390 -0.0087
  800SOL    HW1 2992   7.423   4.957   0.989  0.5576 -0.0771  0.4500
  800SOL    HW2 2993   7.356   4.821   0.988  0.7134 -0.1566 -0.3459
  801SOL     OW 2994   1.378   0.405   0.370  0.6717  0.4106 -0.1382
  801SOL    HW1 2995   1.289   0.422   0.341  0.6714 -0.1260 -0.4613
  801SOL    HW2 2996   1.421   0.490   0.365  0.5637  0.4146 -1.3499
  802SOL     OW 2997   1.299   3.112   0.961 -0.3065 -0.4771 -0.1580
  802SOL    HW1 2998   1.289   3.113   1.056 -0.3399 -1.0241 -0.1521
  802SOL    HW2 2999   1.235   3.176   0.929 -0.7649 -0.7834  0.1490
  803SOL     OW 3000   1.301   5.060   3.420 -0.1593 -0.2089 -0.1571
  803SOL    HW1 3001   1.324   4.972   3.389 -1.9854 -0.8504  0.2152
  803SOL    HW2 3002   1.228   5.087   3.365  0.1846  0.9578 -0.0556
  804SOL     OW 3003   3.779   5.001   1.801  0.2443  0.4785  0.0554
  804SOL    HW1 3004   3.823   4.917   1.808 -0.7141  0.0451  1.1961
  804SOL    HW2 3005   3.741   5.001   1.713  0.5589 -0.1236 -0.0811
  805SOL     OW 3006   0.785   3.739   2.354 -0.2604  0.0819  0.0138
  805SOL    HW1 3007   0.771   3.797   2.428  1.6314  1.5367 -0.6815
  805SOL    HW2 3008   0.778   3.651   2.390  1.0201  0.7400  2.0335
  806SOL     OW 3009   0.842   5.003   0.529  0.1563  0.4157  0.6027
  806SOL    HW1 3010   0.895   4.964   0.599  1.6740  0.9905 -0.1706
  806SOL    HW2 3011   0.878   4.966   0.448  0.2409  1.7847 -0.0178
  807SOL     OW 3012   7.448   3.932   1.216  0.5615  0.0532 -0.2681
  807SOL    HW1 3013   7.538   3.921   1.248 -0.2201 -0.2896  1.9985
  807SOL    HW2 3014   7.396   3.943   1.295 -1.4550  0.0047 -1.5219
  808SOL     OW 3015   1.053   4.876   0.647  0.2510  0.0902 -0.1589
  808SOL    HW1 3016   1.089   4.895   0.734  1.0934 -1.0210 -0.2377
  808SOL    HW2 3017   1.086   4.788   0.627  1.8954  1.1446 -2.5298
  809SOL     OW 3018   1.888   4.399   0.258  0.0815  0.3019  0.4036
  809SOL    HW1 3019   1.853   4.462   0.321 -1.2502  0.6683 -0.6304
  809SOL    HW2 3020   1.956   4.448   0.211  0.2883  0.3876  0.7857
  810SOL     OW 3021   0.174   4.895   0.530 -0.3759 -0.1363  0.3099
  810SOL    HW1 3022   0.174   4.935   0.617 -0.7834  0.1138  0.1983
  810SOL    HW2 3023   0.204   4.965   0.472  0.4964 -0.4849  0.3250
  811SOL     OW 3024   1.956   3.996   0.136  0.2628 -0.0007  0.5666
  811SOL    HW1 3025   1.915   3.969   0.217  0.5592  0.3677  0.8417
  811SOL    HW2 3026   1.885   3.999   0.072 -0.0570  0.2071  0.9322
  812SOL     OW 3027   0.198   1.275   2.330  0.4282 -0.3386  0.1974
  812SOL    HW1 3028   0.140   1.282   2.254 -0.3614  1.1390  0.9056
  812SOL    HW2 3029   0.182   1.187   2.365 -0.1631 -0.5435 -0.5650
  813SOL     OW 3030   7.189   0.529   0.872  0.0619  0.2528  0.6003
  813SOL    HW1 3031   7.258   0.471   0.840 -1.1696 -1.9159  1.6218
  813SOL    HW2 3032   7.121   0.524   0.805 -0.3165 -0.0229  0.9996
  814SOL     OW 3033   0.933   5.210   1.524 -0.2368  0.1155 -0.0872
  814SOL    HW1 3034   0.841   5.188   1.540 -0.8172  0.4364 -2.5793
  814SOL    HW2 3035   0.982   5.145   1.574 -1.8165 -0.6061  0.6044
  815SOL     OW 3036   7.428   4.351   0.930 -0.6637 -0.1311 -0.5460
  815SOL    HW1 3037   7.335   4.348   0.951 -0.2685 -2.2487  1.3351
  815SOL    HW2 3038   7.443   4.273   0.876 -0.2241  1.1196 -2.3317
  816SOL     OW 3039   1.584   4.747   1.834 -1.4827 -0.7178 -0.2356
  816SOL    HW1 3040   1.655   4.702   1.880 -2.5326 -3.0668 -0.7388
  816SOL    HW2 3041   1.613   4.838   1.827  1.8490 -1.7179 -1.1804
  817SOL     OW 3042   5.960   4.279   2.076  0.4867  0.4382 -0.3382
  817SOL    HW1 3043   6.040   4.319   2.042  0.3492  1.5838  0.6198
  817SOL    HW2 3044   5.902   4.353   2.096 -0.2337 -0.2877  0.3896
  818SOL     OW 3045   7.443   2.198   2.894  0.4655 -0.5365  0.6588
  818SOL    HW1 3046   7.349   2.185   2.891  0.0968  1.5532 -3.1832
  818SOL    HW2 3047   7.459   2.236   2.981 -2.6870  1.5331  0.5012
  819SOL     OW 3048   1.326   4.511   0.384  0.2941 -0.7253  0.4350
  819SOL    HW1 3049   1.264   4.463   0.330  0.6674 -0.5178 -0.1840
  819SOL    HW2 3050   1.412   4.489   0.348  0.4442  1.0396 -0.4117
  820SOL     OW 3051   2.083   3.473   3.342 -0.2900  0.4917 -0.0267
  820SOL    HW1 3052   2.113   3.496   3.430  2.9283  0.4496 -0.9769
  820SOL    HW2 3053   2.011   3.534   3.324 -1.8748 -0.3325  3.0214
  821SOL     OW 3054   0.157   4.320   0.419 -0.2103 -0.6334  0.3944
  821SOL    HW1 3055   0.153   4.383   0.347  1.3330 -0.7838  0.1424
  821SOL    HW2 3056   0.145   4.235   0.377 -0.8828 -0.6072  0.5351
  822SOL     OW 3057   1.291   4.811   3.256  0.5231  0.1209 -0.0275
  822SOL    HW1 3058   1.198   4.821   3.275  0.6575  0.6288  0.4106
  822SOL    HW2 3059   1.306   4.717   3.258  0.0695  0.0508  0.1764
  823SOL     OW 3060   0.158   4.223   1.843 -0.3319 -0.1458 -0.4655
  823SOL    HW1 3061   0.082   4.171   1.868 -0.4090 -1.2852 -2.8229
  823SOL    HW2 3062   0.217   4.161   1.801  1.3745  0.9575  0.2006
  824SOL     OW 3063   0.665   2.751   0.062 -0.3872  0.1142  0.1111
  824SOL    HW1 3064   0.735   2.742   0.127  0.3051 -0.0618 -0.6526
  824SOL    HW2 3065   0.586   2.766   0.115  0.4023  1.5487  0.9374
  825SOL     OW 3066   6.547   0.149   1.838 -0.0944 -0.0168 -0.3570
  825SOL    HW1 3067   6.488   0.199   1.782 -0.8914  0.8147  1.1648
  825SOL    HW2 3068   6.634   0.162   1.801 -0.5071  1.1450 -0.9406
  826SOL     OW 3069   0.802   3.854   1.279  0.1217  0.2336  0.4518
  826SOL    HW1 3070   0.825   3.763   1.261 -1.8822 -0.3077  0.3113
  826SOL    HW2 3071   0.726   3.848   1.337 -0.8946  1.7747 -0.6396
  827SOL     OW 3072   0.067   4.047   0.613  0.1961 -0.1657 -0.6996
  827SOL    HW1 3073   0.128   4.100   0.665 -0.3825  0.5125 -0.7042
  827SOL    HW2 3074   0.082   3.957   0.644  1.2092 -0.0166 -0.7135
  828SOL     OW 3075   1.275   4.896   1.624  0.1119 -0.3078  0.4323
  828SOL    HW1 3076   1.196   4.918   1.673  0.3973  1.3804  0.2196
  828SOL    HW2 3077   1.311   4.981   1.598  2.6178 -0.9602  1.4786
  829SOL     OW 3078   0.031   4.984   0.007  0.0184 -0.2741  0.8614
  829SOL    HW1 3079   0.002   4.902   0.047 -1.2642 -0.1247  0.2844
  829SOL    HW2 3080  -0.007   5.053   0.062 -1.7547 -0.0670 -0.5287
  830SOL     OW 3081   2.997   3.255   0.268  0.1277 -0.5605  0.3025
  830SOL    HW1 3082   3.030   3.241   0.179  0.3397  1.1772  0.0677
  830SOL    HW2 3083   3.073   3.245   0.325  0.5332  0.6740  0.0244
  831SOL     OW 3084   1.927   0.417   0.484  0.0931 -0.1577 -0.1575
  831SOL    HW1 3085   1.940   0.351   0.552 -0.6788 -0.5196 -0.3523
  831SOL    HW2 3086   1.896   0.494   0.532 -0.3185 -0.3696 -0.0714
  832SOL     OW 3087   1.043   0.069   2.438 -0.0554 -0.6826  0.0853
  832SOL    HW1 3088   0.976   0.008   2.408 -2.4117  1.5047  0.5255
  832SOL    HW2 3089   1.027   0.079   2.532  0.1611  0.6749  0.0032
  833SOL     OW 3090   2.699   4.964   2.861 -0.0234  0.4719 -0.2291
  833SOL    HW1 3091   2.715   4.908   2.786 -0.6106 -0.4945  0.3435
  833SOL    HW2 3092   2.604   4.977   2.861 -0.0829  0.0682  0.6154
  834SOL     OW 3093   1.461   5.406   1.174 -0.1650  0.0175 -0.2930
  834SOL    HW1 3094   1.451   5.469   1.245  0.8046  0.9617 -0.9642
  834SOL    HW2 3095   1.545   5.363   1.191 -0.9714 -1.3820  0.3513
  835SOL     OW 3096   0.371   5.069   3.517  0.1888 -0.0339  0.1732
  835SOL    HW1 3097   0.337   4.994   3.566 -0.2473  0.2291  0.2760
  835SOL    HW2 3098   0.327   5.145   3.555  1.3940  0.3912  0.7616
  836SOL     OW 3099   1.033   4.290   2.634 -0.1948  0.2971 -0.1097
  836SOL    HW1 3100   0.956   4.297   2.690  0.1261 -0.0478  0.3876
  836SOL    HW2 3101   1.079   4.373   2.645  0.2815 -0.0707  0.7760
  837SOL     OW 3102   6.812   0.136   0.757 -0.0308 -0.5716  0.8444
  837SOL    HW1 3103   6.839   0.228   0.753 -0.9299 -0.3225 -0.1293
  837SOL    HW2 3104   6.878   0.089   0.707  0.1794 -0.3940  0.9519
  838SOL     OW 3105   0.611   0.188   1.103  0.0384 -0.2898 -0.0079
  838SOL    HW1 3106   0.670   0.135   1.156 -2.4437 -1.7594  1.5006
  838SOL    HW2 3107   0.564   0.242   1.167 -0.6026  0.4735 -1.0911
  839SOL     OW 3108   0.801   3.293   3.115  0.1228 -0.0207 -0.2808
  839SOL    HW1 3109   0.752   3.213   3.097  1.6182 -0.6731 -1.7799
  839SOL    HW2 3110   0.781   3.350   3.040 -0.8039  0.9828  0.6934
  840SOL     OW 3111   3.101   4.833   2.325  0.2631 -0.0277  0.4860
  840SOL    HW1 3112   3.172   4.896   2.312  0.3327 -0.1553  0.2187
  840SOL    HW2 3113   3.059   4.827   2.238  2.3890 -2.8972 -0.4813
  841SOL     OW 3114   6.613   4.993   3.225  0.1622  0.3188 -0.3778
  841SOL    HW1 3115   6.554   4.918   3.222  0.5112  0.0576 -2.5651
  841SOL    HW2 3116   6.700   4.955   3.213  0.5027  0.9349  0.1020
  842SOL     OW 3117   0.864   3.554   0.461 -0.1240 -0.5805 -0.7310
  842SOL    HW1 3118   0.958   3.569   0.453 -0.0024 -1.8765 -2.1336
  842SOL    HW2 3119   0.824   3.638   0.439  0.6786 -0.2622 -1.0122
  843SOL     OW 3120   1.554   0.077   2.530  0.5341  0.2540  0.1999
  843SOL    HW1 3121   1.647   0.096   2.521  0.6340 -0.0503  0.5697
  843SOL    HW2 3122   1.510   0.149   2.483  0.9765 -0.2992 -1.1101
  844SOL     OW 3123   2.790   3.123   0.857 -0.3158 -0.0496 -0.3614
  844SOL    HW1 3124   2.885   3.129   0.845 -0.1330 -0.7097  0.6365
  844SOL    HW2 3125   2.763   3.212   0.877  0.2598 -0.0265  0.3704
  845SOL     OW 3126   0.647   5.432   3.459 -0.0828  0.1059 -0.0150
  845SOL    HW1 3127   0.567   5.482   3.476 -0.0604  0.0943  0.1291
  845SOL    HW2 3128   0.690   5.426   3.545 -0.3866 -0.6840  0.0907
  846SOL     OW 3129   0.460   4.659   1.212  0.5669 -0.4839  0.1696
  846SOL    HW1 3130   0.491   4.644   1.302 -0.0686  1.5218  0.7669
  846SOL    HW2 3131   0.371   4.624   1.211  0.3385  0.0805  0.5206
  847SOL     OW 3132   0.995   4.344   3.471 -0.0205 -0.2220 -0.4455
  847SOL    HW1 3133   0.936   4.269   3.472 -1.0935  0.5895  0.5877
  847SOL    HW2 3134   1.064   4.320   3.408 -0.3447 -2.0287 -0.1727
  848SOL     OW 3135   7.015   4.431   3.460  0.6928 -0.0608  0.2665
  848SOL    HW1 3136   7.053   4.432   3.372 -0.0977 -1.0955 -0.1141
  848SOL    HW2 3137   6.932   4.477   3.451  1.5093  1.6057  0.9464
  849SOL     OW 3138   0.006   4.634   1.374 -0.5018  0.3746 -0.2445
  849SOL    HW1 3139  -0.081   4.669   1.394 -0.4057 -1.3431  4.4380
  849SOL    HW2 3140  -0.011   4.544   1.346 -0.2550  0.4896 -0.7766
  850SOL     OW 3141   1.703   3.902   3.458  0.3803  0.3087  0.3716
  850SOL    HW1 3142   1.690   3.960   3.383  1.2751 -0.7423 -0.6574
  850SOL    HW2 3143   1.641   3.831   3.444 -0.6883  0.9672  1.6052
  851SOL     OW 3144   1.114   3.079   2.940  0.2273  0.2416  0.1519
  851SOL    HW1 3145   1.189   3.048   2.888 -0.2032 -1.1220  0.3125
  851SOL    HW2 3146   1.058   3.002   2.949 -0.8289  1.0548  0.6895
  852SOL     OW 3147   7.327   3.693   3.377  0.3132 -0.4914 -0.3811
  852SOL    HW1 3148   7.354   3.713   3.467  1.9428  1.8472 -1.2898
  852SOL    HW2 3149   7.277   3.770   3.350 -1.9818 -2.0591 -0.8734
  853SOL     OW 3150   1.412   4.390   1.770 -0.3956  0.0717  0.0220
  853SOL    HW1 3151   1.412   4.322   1.702 -0.3853 -1.7839  1.7660
  853SOL    HW2 3152   1.422   4.472   1.722  1.4989 -1.2621 -2.0835
  854SOL     OW 3153   0.001   3.502   0.749  0.0688 -0.1204  0.0836
  854SOL    HW1 3154   0.043   3.469   0.669 -0.5916  1.3252 -0.9081
  854SOL    HW2 3155   0.012   3.432   0.812 -0.0774 -1.6489 -1.5097
  855SOL     OW 3156   0.036   4.263   1.271 -0.0237  0.6117  0.8233
  855SOL    HW1 3157   0.013   4.175   1.299  0.7625 -0.7703 -2.3895
  855SOL    HW2 3158  -0.048   4.308   1.262 -0.4066  0.3788  2.8784
  856SOL     OW 3159   7.410   0.456   1.324  0.1549  0.4379  0.2725
  856SOL    HW1 3160   7.432   0.548   1.341 -0.8646  1.0930 -1.6414
  856SOL    HW2 3161   7.420   0.446   1.230  0.3030 -1.4596  0.4559
  857SOL     OW 3162   2.307   4.655   1.759  0.2535 -0.2883  0.4671
  857SOL    HW1 3163   2.327   4.748   1.767  0.4685 -0.1935 -0.9444
  857SOL    HW2 3164   2.211   4.651   1.757  0.2036 -0.2377  1.7953
  858SOL     OW 3165   1.504   0.381   1.520  0.1190  0.1426 -0.6752
  858SOL    HW1 3166   1.511   0.476   1.517 -1.3808  0.3511  0.8770
  858SOL    HW2 3167   1.439   0.364   1.588  0.8338 -2.0216 -0.4587
  859SOL     OW 3168   0.696   4.484   0.139  0.2913 -0.1561 -0.0088
  859SOL    HW1 3169   0.750   4.496   0.216  0.1751  0.3919 -0.0143
  859SOL    HW2 3170   0.736   4.539   0.072  0.8800 -1.2584 -0.5933
  860SOL     OW 3171   0.162   3.107   3.362 -0.4349 -0.3523  0.2191
  860SOL    HW1 3172   0.215   3.185   3.353 -1.0924  0.3872  2.2672
  860SOL    HW2 3173   0.222   3.040   3.394  0.3101 -1.0086 -2.2766
  861SOL     OW 3174   1.285   2.723   0.411 -0.5499 -0.5011 -0.5406
  861SOL    HW1 3175   1.346   2.748   0.341 -0.2827  0.1123 -0.1080
  861SOL    HW2 3176   1.340   2.680   0.476 -0.7748 -0.9552 -0.6506
  862SOL     OW 3177   0.252   4.841   0.030  0.0994 -0.4246 -1.0267
  862SOL    HW1 3178   0.211   4.764  -0.010  0.8355 -1.0966 -0.5129
  862SOL    HW2 3179   0.180   4.904   0.039 -0.5087 -1.0348 -1.4876
  863SOL     OW 3180   2.256   3.832   0.522  0.4673 -0.3285  0.1847
  863SOL    HW1 3181   2.231   3.921   0.550 -0.6749 -0.0534 -1.5250
  863SOL    HW2 3182   2.348   3.839   0.499  0.1448  0.7000 -0.8953
  864SOL     OW 3183   7.281   4.763   1.464  0.3429 -0.0583 -0.6319
  864SOL    HW1 3184   7.212   4.824   1.436  0.6575 -0.2242 -1.8239
  864SOL    HW2 3185   7.242   4.715   1.537  0.0736  1.5345  0.3160
  865SOL     OW 3186   0.489   1.668   3.352 -0.0498 -0.6179 -0.4993
  865SOL    HW1 3187   0.474   1.609   3.426  0.4042 -0.1083  0.0071
  865SOL    HW2 3188   0.493   1.756   3.392 -3.4995  0.1666 -1.5070
  866SOL     OW 3189   0.547   0.542   0.929  0.8289 -0.0170 -0.7895
  866SOL    HW1 3190   0.602   0.591   0.867  1.7114  0.8821  0.6410
  866SOL    HW2 3191   0.605   0.476   0.965  0.8907  0.6683  0.4283
  867SOL     OW 3192   0.397   2.858   0.507 -0.1590 -0.3302  0.4375
  867SOL    HW1 3193   0.463   2.800   0.470 -0.1006  0.2025 -0.3244
  867SOL    HW2 3194   0.447   2.928   0.548 -0.2153  0.6796 -1.1199
  868SOL     OW 3195   6.407   4.069   0.574  0.8046  0.0467 -0.8558
  868SOL    HW1 3196   6.476   4.105   0.518  1.9043  0.9709  1.0032
  868SOL    HW2 3197   6.434   3.979   0.590  1.4998  0.3458 -0.2942
  869SOL     OW 3198   0.296   4.665   0.534 -0.2568  0.2637 -0.0413
  869SOL    HW1 3199   0.370   4.701   0.484  0.9228  0.4586  1.7225
  869SOL    HW2 3200   0.227   4.731   0.526 -0.1328  0.2369 -1.4596
  870SOL     OW 3201   1.438   3.549   0.123  0.3576 -0.2347 -0.6260
  870SOL    HW1 3202   1.475   3.461   0.132  0.2994 -0.2777 -0.7935
  870SOL    HW2 3203   1.513   3.608   0.128  0.2412 -0.1727  1.1859
  871SOL     OW 3204   0.839   3.109   2.421 -0.8624 -0.1342  0.3025
  871SOL    HW1 3205   0.889   3.190   2.425 -1.6267  0.5569 -2.3890
  871SOL    HW2 3206   0.769   3.120   2.486 -1.1603  1.5200 -0.2721
  872SOL     OW 3207   1.191   4.631   0.632  0.4550 -0.1004  0.0979
  872SOL    HW1 3208   1.269   4.672   0.669  1.3402 -1.2525 -0.4170
  872SOL    HW2 3209   1.224   4.583   0.556 -0.7495 -0.6785 -0.0694
  873SOL     OW 3210   1.662   4.589   0.644 -0.0321 -0.4986 -0.1622
  873SOL    HW1 3211   1.653   4.683   0.663  1.5506 -0.2565 -0.4101
  873SOL    HW2 3212   1.637   4.545   0.725 -1.7748  0.0723 -0.3602
  874SOL     OW 3213   0.529   4.354   1.228  0.1946 -0.2907  0.0378
  874SOL    HW1 3214   0.603   4.402   1.191 -0.4879  0.1686 -0.7461
  874SOL    HW2 3215   0.487   4.416   1.288 -0.1205 -0.2231 -0.2488
  875SOL     OW 3216   7.120   0.768   1.465  0.4012  0.3221 -0.2795
  875SOL    HW1 3217   7.054   0.812   1.412  0.7246  1.9630  0.6116
  875SOL    HW2 3218   7.201   0.774   1.413  0.2452 -0.0753 -0.5725
  876SOL     OW 3219   1.751   0.135   1.497 -0.0939  0.8829 -0.1598
  876SOL    HW1 3220   1.725   0.139   1.589 -1.6646 -0.5018 -0.4971
  876SOL    HW2 3221   1.845   0.153   1.498 -0.2957  2.1096  1.5644
  877SOL     OW 3222   0.661   5.176   2.983  0.2120 -0.4458  0.0841
  877SOL    HW1 3223   0.617   5.096   2.956 -0.6517  0.6751 -2.1386
  877SOL    HW2 3224   0.754   5.158   2.970  0.1166 -1.4364  0.7163
  878SOL     OW 3225   0.730   4.176   2.533 -0.3610 -0.4863  0.7384
  878SOL    HW1 3226   0.787   4.162   2.457  0.3052  0.4438  1.0511
  878SOL    HW2 3227   0.647   4.136   2.507 -0.8087  1.5435 -1.3353
  879SOL     OW 3228   0.914   4.590   0.668 -0.0590  0.6809 -0.5731
  879SOL    HW1 3229   0.916   4.494   0.676  0.9396  0.6478 -1.0893
  879SOL    HW2 3230   1.006   4.616   0.672 -0.3912  1.7445  0.7945
  880SOL     OW 3231   2.067   0.027   0.827  0.0132 -0.1568 -0.0273
  880SOL    HW1 3232   2.037   0.106   0.783 -1.6125 -0.2060  0.9016
  880SOL    HW2 3233   2.101   0.058   0.911 -1.1154 -0.4397  0.5649
  881SOL     OW 3234   1.555   4.481   1.481  0.1600 -0.0540 -0.0501
  881SOL    HW1 3235   1.501   4.552   1.517  0.2856  0.2387 -0.4333
  881SOL    HW2 3236   1.584   4.514   1.396  0.2812 -0.5367 -0.1981
  882SOL     OW 3237   0.456   4.530   1.464  0.2954 -0.3933  0.5376
  882SOL    HW1 3238   0.469   4.614   1.508  1.3559 -0.4310  0.3380
  882SOL    HW2 3239   0.452   4.467   1.536  0.8841 -0.3236  0.6397
  883SOL     OW 3240   0.599   3.430   1.310  0.2392 -0.2823  0.8832
  883SOL    HW1 3241   0.580   3.500   1.372  0.1624  0.7605 -0.2757
  883SOL    HW2 3242   0.691   3.408   1.326 -0.1097 -0.8578  2.1582
  884SOL     OW 3243   1.910   4.098   0.599  0.1671  0.3645  0.3445
  884SOL    HW1 3244   1.866   4.177   0.630 -0.3489 -0.5114  1.9422
  884SOL    HW2 3245   1.928   4.048   0.678 -1.0150 -1.8910 -0.7214
  885SOL     OW 3246   1.103   3.766   1.885 -0.7313 -0.1112 -0.7202
  885SOL    HW1 3247   1.098   3.862   1.889 -1.3429 -0.1765  0.3571
  885SOL    HW2 3248   1.018   3.740   1.850 -0.6925 -0.2800 -0.6875
  886SOL     OW 3249   1.594   1.302   1.579 -0.0441  0.1213  0.3720
  886SOL    HW1 3250   1.573   1.390   1.546  0.0954  0.7199  1.7766
  886SOL    HW2 3251   1.688   1.293   1.562 -0.3930 -0.5261 -1.4135
  887SOL     OW 3252   0.359   4.219   0.929 -0.1396  0.4204 -0.0186
  887SOL    HW1 3253   0.286   4.233   0.989  0.7015  2.8397  0.5167
  887SOL    HW2 3254   0.321   4.230   0.842 -1.1428 -2.0971  0.0076
  888SOL     OW 3255   0.829   0.542   0.795 -0.0304 -0.0944  0.2550
  888SOL    HW1 3256   0.849   0.635   0.791 -0.5820  0.0480  0.6332
  888SOL    HW2 3257   0.851   0.516   0.884 -1.6643  0.1198  0.7627
  889SOL     OW 3258   0.441   0.771   3.251  0.4497  0.1547 -0.0288
  889SOL    HW1 3259   0.513   0.813   3.203  0.1254  0.0705 -0.5928
  889SOL    HW2 3260   0.471   0.681   3.264 -0.0136 -0.2024 -1.2642
  890SOL     OW 3261   0.293   4.015   0.122  0.2158  0.2219  0.0078
  890SOL    HW1 3262   0.354   4.086   0.106  0.2817 -0.0364 -0.8987
  890SOL    HW2 3263   0.214   4.040   0.074  0.7578 -1.0339 -1.5903
  891SOL     OW 3264   7.250   0.571   0.481 -0.3881 -0.0057  0.1150
  891SOL    HW1 3265   7.194   0.584   0.557  0.9665  0.4715  1.0906
  891SOL    HW2 3266   7.336   0.550   0.518  0.5512  1.1986 -1.2419
  892SOL     OW 3267   0.895   4.805   0.985  0.1918 -0.2339 -0.3423
  892SOL    HW1 3268   0.922   4.714   0.970 -1.5081 -0.6767 -0.9484
  892SOL    HW2 3269   0.964   4.857   0.944  1.2549 -1.2429  0.1257
  893SOL     OW 3270   0.358   3.802   0.576  0.0553  0.1477  0.6721
  893SOL    HW1 3271   0.356   3.711   0.606 -0.4712  0.6052  2.1240
  893SOL    HW2 3272   0.388   3.851   0.653  0.1052  1.2310 -0.0188
  894SOL     OW 3273   0.042   0.416   1.030  0.4264 -0.2133  0.4933
  894SOL    HW1 3274  -0.014   0.344   1.002  0.9093 -0.5944  0.5198
  894SOL    HW2 3275   0.119   0.411   0.975 -0.1016  1.0825 -0.4161
  895SOL     OW 3276   7.282   3.998   0.358  0.0526  0.5822  0.3121
  895SOL    HW1 3277   7.377   3.994   0.347 -0.1940 -1.5881 -1.9046
  895SOL    HW2 3278   7.261   3.928   0.420 -0.2852 -1.0984 -1.5995
  896SOL     OW 3279   0.996   4.926   1.536 -0.4490 -0.6065  0.5878
  896SOL    HW1 3280   0.901   4.911   1.533 -0.4435 -0.5428 -0.0913
  896SOL    HW2 3281   1.020   4.945   1.445  0.2586 -0.8719  0.7141
  897SOL     OW 3282   0.928   3.589   2.753 -0.8919  0.1821 -0.1310
  897SOL    HW1 3283   1.007   3.643   2.749 -0.7786  0.0466  0.2284
  897SOL    HW2 3284   0.947   3.514   2.698 -1.1622  0.6486 -0.8726
  898SOL     OW 3285   1.743   3.525   2.500 -0.4221 -0.5206  0.0984
  898SOL    HW1 3286   1.788   3.566   2.426 -0.2499  0.4351  0.7070
  898SOL    HW2 3287   1.687   3.459   2.461 -2.4015  1.7637 -1.1859
  899SOL     OW 3288   0.408   5.416   0.228  0.1074 -0.0328  0.1068
  899SOL    HW1 3289   0.424   5.503   0.193  0.6092  0.0804  0.6075
  899SOL    HW2 3290   0.326   5.388   0.186 -0.1739  0.7634  0.1102
  900SOL     OW 3291   0.524   4.764   0.447  0.1733 -0.5224  0.1880
  900SOL    HW1 3292   0.585   4.691   0.456 -0.5621 -1.0490  1.1012
  900SOL    HW2 3293   0.536   4.794   0.357  1.0160 -1.2970  0.0248
  901SOL     OW 3294   1.785   4.507   1.044 -0.2016  0.3148 -0.8779
  901SOL    HW1 3295   1.745   4.593   1.031 -0.4832  0.2303 -0.5757
  901SOL    HW2 3296   1.739   4.449   0.983  0.9032  0.6455 -2.0616
  902SOL     OW 3297   6.982   4.689   0.204  0.2916  0.1829  0.1321
  902SOL    HW1 3298   6.982   4.594   0.194 -1.0787  0.1464  0.2731
  902SOL    HW2 3299   6.993   4.703   0.298  3.3016  0.2864 -0.1126
  903SOL     OW 3300   1.157   0.785   1.218 -0.3580  0.6121 -0.1295
  903SOL    HW1 3301   1.209   0.852   1.174  1.9885  0.2844  1.9919
  903SOL    HW2 3302   1.170   0.800   1.311 -0.7147 -2.0657  0.4423
  904SOL     OW 3303   0.467   5.146   0.915 -0.1615 -0.4836  0.2076
  904SOL    HW1 3304   0.476   5.216   0.851  0.2100 -0.3480  0.3985
  904SOL    HW2 3305   0.542   5.088   0.898  0.6639  0.2131  1.3050
  905SOL     OW 3306   0.440   4.763   2.278  0.4142  0.0113  0.0468
  905SOL    HW1 3307   0.373   4.698   2.301  0.9383 -0.8907 -0.9096
  905SOL    HW2 3308   0.463   4.804   2.362 -2.1669  1.2155  0.2469
  906SOL     OW 3309   1.174   3.349   1.398  0.0109 -0.2607  0.7343
  906SOL    HW1 3310   1.179   3.262   1.357  3.4585  0.9161 -1.8069
  906SOL    HW2 3311   1.216   3.337   1.483  3.6439 -0.6883 -0.8910
  907SOL     OW 3312   1.592   4.018   0.524 -0.2042  0.3624 -0.2352
  907SOL    HW1 3313   1.627   3.970   0.600 -0.6521 -0.5350 -0.5753
  907SOL    HW2 3314   1.657   4.003   0.455  2.5211  4.6927  0.9651
  908SOL     OW 3315   0.205   0.031   0.608 -0.2362 -0.5243  0.3757
  908SOL    HW1 3316   0.147  -0.005   0.542  0.5236  0.0009 -0.6039
  908SOL    HW2 3317   0.290  -0.009   0.590 -0.2570 -1.2405  1.7502
  909SOL     OW 3318   7.417   0.721   2.073 -0.7246  0.0921  0.0124
  909SOL    HW1 3319   7.326   0.702   2.049 -0.0210 -2.1318 -1.2575
  909SOL    HW2 3320   7.466   0.645   2.040  1.3277  0.2131  2.4992
  910SOL     OW 3321   3.032   5.233   1.085 -0.2383 -0.4135 -0.5021
  910SOL    HW1 3322   2.993   5.305   1.134  0.0810 -0.0239 -0.8114
  910SOL    HW2 3323   3.125   5.238   1.105 -0.0707 -0.1068 -1.3274
  911SOL     OW 3324   0.735   4.503   1.114 -0.2468  0.0371  0.2884
  911SOL    HW1 3325   0.812   4.544   1.077 -1.0483 -1.1195 -3.0214
  911SOL    HW2 3326   0.665   4.568   1.105 -0.0477  0.4804  1.7390
  912SOL     OW 3327   1.177   4.136   2.854  0.0059 -0.7759 -0.3460
  912SOL    HW1 3328   1.120   4.152   2.778  0.9237 -0.9225 -1.0778
  912SOL    HW2 3329   1.265   4.156   2.823  0.2829  0.3227  1.0337
  913SOL     OW 3330   1.560   4.672   3.098 -0.1251  0.2029 -0.1773
  913SOL    HW1 3331   1.514   4.607   3.151  1.2809  0.2473  1.1606
  913SOL    HW2 3332   1.502   4.748   3.096 -1.4185 -0.7595 -1.0670
  914SOL     OW 3333   1.945   4.634   2.679  0.4152  0.6287 -0.1290
  914SOL    HW1 3334   1.919   4.665   2.765  1.1308 -1.0744  0.7658
  914SOL    HW2 3335   1.865   4.637   2.626 -0.2580  0.7885  0.8793
  915SOL     OW 3336   7.204   4.515   0.433 -0.5713  0.1156 -0.5498
  915SOL    HW1 3337   7.285   4.542   0.476 -1.5576  1.6935  0.4383
  915SOL    HW2 3338   7.189   4.425   0.463 -0.6333  0.7792  1.6027
  916SOL     OW 3339   0.720   2.637   0.812 -0.0848  0.3859  0.8991
  916SOL    HW1 3340   0.777   2.672   0.880 -0.0421  1.7581  0.2152
  916SOL    HW2 3341   0.738   2.693   0.736  1.0348 -2.0506 -0.7458
  917SOL     OW 3342   7.141   4.155   1.021  0.5980  0.5998 -0.4334
  917SOL    HW1 3343   7.070   4.153   1.085 -0.7462 -0.2840 -1.8900
  917SOL    HW2 3344   7.194   4.078   1.042  0.9974  1.1101  0.4865
  918SOL     OW 3345   1.879   3.635   3.293  0.8059  0.4461 -0.0184
  918SOL    HW1 3346   1.785   3.615   3.297  1.1749 -1.3079  3.0027
  918SOL    HW2 3347   1.883   3.730   3.286 -1.2660  0.7241  1.5429
  919SOL     OW 3348   7.506   0.335   2.591 -0.1707  0.2046 -0.0208
  919SOL    HW1 3349   7.575   0.322   2.656 -0.1913 -0.1406 -0.0643
  919SOL    HW2 3350   7.453   0.256   2.597 -0.7771  0.6297  0.2727
  920SOL     OW 3351   6.686   4.840   2.911 -0.1096  0.5528 -0.2394
  920SOL    HW1 3352   6.731   4.896   2.848  0.2348  2.2998  1.4567
  920SOL    HW2 3353   6.717   4.869   2.997 -2.7420  0.3224  0.9120
  921SOL     OW 3354   0.799   0.224   1.509  0.4942 -0.4009  0.5441
  921SOL    HW1 3355   0.711   0.187   1.519  0.3291 -0.2493 -0.2695
  921SOL    HW2 3356   0.856   0.149   1.496  0.3410 -0.4438  0.1213
  922SOL     OW 3357   1.135   0.548   2.663  0.1627  0.8018  0.2368
  922SOL    HW1 3358   1.085   0.602   2.601 -1.4103 -1.2317 -0.3778
  922SOL    HW2 3359   1.222   0.541   2.624 -0.2838  1.0285 -0.8348
  923SOL     OW 3360   0.044   4.056   0.339 -0.3973 -0.7214  0.0171
  923SOL    HW1 3361   0.061   4.073   0.431  1.6941  0.5641 -0.5463
  923SOL    HW2 3362   0.084   3.971   0.322 -1.6894 -1.4569  0.4738
  924SOL     OW 3363   6.195   3.703   2.027  0.4015  0.3768  0.3996
  924SOL    HW1 3364   6.155   3.722   2.112  0.0293 -1.3192  0.6397
  924SOL    HW2 3365   6.130   3.731   1.963 -0.8596 -1.4824  0.7718
  925SOL     OW 3366   1.000   4.865   3.273  0.2845  0.1482  0.2386
  925SOL    HW1 3367   0.992   4.772   3.253  0.6576 -0.1080  1.2233
  925SOL    HW2 3368   0.915   4.902   3.252  0.4553 -0.2096 -1.1819
  926SOL     OW 3369   2.162   5.294   3.478 -0.0775 -0.8186  0.2202
  926SOL    HW1 3370   2.234   5.232   3.463  0.5899  0.2987 -1.4840
  926SOL    HW2 3371   2.158   5.346   3.398 -3.0550 -1.0470  0.1280
  927SOL     OW 3372   6.910   4.961   0.811 -0.0564  0.1194 -0.7321
  927SOL    HW1 3373   6.894   4.866   0.814 -2.1883  0.4583  0.4473
  927SOL    HW2 3374   7.005   4.969   0.813  0.1972 -2.0051 -1.5856
  928SOL     OW 3375   7.377   5.119   0.625  0.0865 -0.0694  0.0089
  928SOL    HW1 3376   7.422   5.191   0.668 -0.3084  0.5656 -0.6158
  928SOL    HW2 3377   7.388   5.136   0.532  0.5089 -1.1545 -0.1527
  929SOL     OW 3378   0.433   4.412   2.543  0.1122 -0.0667 -0.5314
  929SOL    HW1 3379   0.385   4.338   2.506 -1.1830 -0.2057  1.2792
  929SOL    HW2 3380   0.494   4.373   2.605 -0.8952  0.3651  0.7678
  930SOL     OW 3381   6.754   5.108   0.671  0.2058  0.3544  0.0690
  930SOL    HW1 3382   6.804   5.051   0.729 -0.3626  0.3143  0.5369
  930SOL    HW2 3383   6.811   5.183   0.655 -0.0187  0.8737  1.5428
  931SOL     OW 3384   1.660   0.378   2.083  0.7692 -1.0703  0.6962
  931SOL    HW1 3385   1.729   0.444   2.090  0.2685 -0.6497  2.2122
  931SOL    HW2 3386   1.633   0.381   1.992  0.7482  0.8666  0.7187
  932SOL     OW 3387   1.692   5.282   1.202  0.3717  0.0531 -0.0528
  932SOL    HW1 3388   1.760   5.336   1.163  0.3446  0.7542  0.8436
  932SOL    HW2 3389   1.740   5.222   1.259  0.3124 -0.1083 -0.1726
  933SOL     OW 3390   1.069   4.475   1.252 -0.1222 -0.6648  0.2696
  933SOL    HW1 3391   1.135   4.450   1.187 -0.2922 -0.7814  0.1404
  933SOL    HW2 3392   1.006   4.528   1.202 -0.0356 -0.4080  0.4294
  934SOL     OW 3393   1.288   4.582   2.258  1.1657 -0.0498 -0.7465
  934SOL    HW1 3394   1.241   4.506   2.225 -0.9364  1.4146 -1.3659
  934SOL    HW2 3395   1.335   4.617   2.182  0.3599  0.4802 -1.0156
  935SOL     OW 3396   0.730   0.042   0.478 -0.4907 -0.6390 -0.6506
  935SOL    HW1 3397   0.798  -0.025   0.469  0.7812  0.5299 -0.1882
  935SOL    HW2 3398   0.771   0.110   0.532 -2.0662  0.0779 -0.3116
  936SOL     OW 3399   7.476   3.144   1.611 -0.2868 -0.0123 -0.5729
  936SOL    HW1 3400   7.431   3.178   1.534  0.1498  0.2424 -0.7209
  936SOL    HW2 3401   7.505   3.223   1.658 -0.6336 -0.1642 -0.0966
  937SOL     OW 3402   0.932   4.920   0.292 -0.6732  0.3122  0.5296
  937SOL    HW1 3403   0.905   4.948   0.204 -1.6482  0.0386  0.7334
  937SOL    HW2 3404   1.018   4.962   0.305  1.4188 -2.6997 -2.0921
  938SOL     OW 3405   1.877   5.284   0.857 -0.0692 -0.5019  0.6458
  938SOL    HW1 3406   1.950   5.345   0.850  1.0716 -1.8770  0.1295
  938SOL    HW2 3407   1.799   5.339   0.851  0.9183  0.8377 -0.6318
  939SOL     OW 3408   1.101   0.594   0.964  0.4949 -0.2769 -0.6003
  939SOL    HW1 3409   1.129   0.516   1.011  0.5744  0.3778  0.4789
  939SOL    HW2 3410   1.071   0.654   1.032 -0.0808  0.4368 -1.4433
  940SOL     OW 3411   0.180   0.294   0.598  0.3103  0.0016  0.4335
  940SOL    HW1 3412   0.181   0.199   0.610  0.6811  0.1194  1.4294
  940SOL    HW2 3413   0.199   0.329   0.684  2.7511  0.9249 -0.3890
  941SOL     OW 3414   6.768   5.138   2.131  0.1217  0.1844 -0.5392
  941SOL    HW1 3415   6.781   5.160   2.224  0.1047  1.0294 -0.7344
  941SOL    HW2 3416   6.759   5.222   2.087 -1.6480 -0.2414 -1.0699
  942SOL     OW 3417   0.488   5.405   1.297 -0.3847  0.0190  0.0025
  942SOL    HW1 3418   0.556   5.339   1.299 -0.8480 -0.4674 -0.1615
  942SOL    HW2 3419   0.511   5.465   1.368  0.0833 -0.2651  0.0952
  943SOL     OW 3420   0.581   4.038   0.164 -0.1085 -0.2408  0.2067
  943SOL    HW1 3421   0.570   3.987   0.244 -3.0753  0.2382  0.2143
  943SOL    HW2 3422   0.569   4.129   0.192  1.0319  0.1399 -0.4622
  944SOL     OW 3423   0.454   3.289   0.153 -0.3657  0.4298  0.5296
  944SOL    HW1 3424   0.529   3.334   0.114  0.3700 -1.2673 -0.0833
  944SOL    HW2 3425   0.393   3.275   0.080  0.3045 -1.3137  0.2562
  945SOL     OW 3426   1.127   0.482   0.342 -0.3347 -0.1593  0.2179
  945SOL    HW1 3427   1.102   0.564   0.385 -1.4777  0.8719 -2.1945
  945SOL    HW2 3428   1.044   0.446   0.310  0.1105 -2.4633  1.4985
  946SOL     OW 3429   1.230   5.389   1.928  0.2933  0.4714 -0.8289
  946SOL    HW1 3430   1.285   5.415   2.002  0.3175  0.0439 -0.6957
  946SOL    HW2 3431   1.153   5.348   1.968  0.5321 -0.2014 -1.0435
  947SOL     OW 3432   0.055   4.092   3.527 -0.3882  0.3396  0.4249
  947SOL    HW1 3433  -0.024   4.127   3.569 -1.5048 -0.8990 -0.5571
  947SOL    HW2 3434   0.040   4.107   3.433 -0.5756 -2.0071  0.0332
  948SOL     OW 3435   0.346   4.787   0.909 -0.2861  0.2022  0.2506
  948SOL    HW1 3436   0.333   4.694   0.930  0.2804  0.3568  1.3632
  948SOL    HW2 3437   0.427   4.788   0.858 -0.1211  0.1065  0.5049
  949SOL     OW 3438   1.925   5.096   0.596  0.1718 -0.8189  0.2985
  949SOL    HW1 3439   1.923   5.142   0.680  0.2264  0.2682 -0.2827
  949SOL    HW2 3440   1.965   5.158   0.535  1.3609 -2.0825 -0.2499
  950SOL     OW 3441   1.885   0.648   1.207  0.7109 -0.1306  0.0525
  950SOL    HW1 3442   1.844   0.569   1.242  2.0388 -0.3269  1.2959
  950SOL    HW2 3443   1.863   0.648   1.114 -0.0888 -1.4550  0.2133
  951SOL     OW 3444   1.385   3.727   2.579 -0.5879 -0.7698 -0.2135
  951SOL    HW1 3445   1.457   3.775   2.621 -0.1653 -2.1825  0.7562
  951SOL    HW2 3446   1.422   3.697   2.496 -1.5171  2.2818 -1.8713
  952SOL     OW 3447   0.234   0.927   3.150 -0.3448 -0.3396 -0.0320
  952SOL    HW1 3448   0.308   0.973   3.111 -1.4822 -1.0857 -3.3729
  952SOL    HW2 3449   0.271   0.848   3.188  0.6566 -0.5404 -1.3546
  953SOL     OW 3450   7.370   0.853   3.462 -0.0758  0.3489  0.7407
  953SOL    HW1 3451   7.393   0.936   3.503 -0.3291 -0.2993  2.2763
  953SOL    HW2 3452   7.454   0.810   3.444  0.2703  2.1603 -2.9837
  954SOL     OW 3453   7.488   0.178   1.501  0.1358  0.2049  0.0932
  954SOL    HW1 3454   7.445   0.096   1.476  2.7595 -1.1905 -0.0944
  954SOL    HW2 3455   7.472   0.237   1.427  0.8921 -1.1968 -1.2278
  955SOL     OW 3456   1.693   4.066   1.769  0.2231  0.1059 -0.1573
  955SOL    HW1 3457   1.703   4.161   1.756 -2.2126  0.3363 -0.8867
  955SOL    HW2 3458   1.688   4.056   1.865  3.3920  0.2748  0.1153
  956SOL     OW 3459   6.789   3.692   2.109 -0.0259 -0.2256  0.2772
  956SOL    HW1 3460   6.702   3.663   2.137  0.1184 -1.1409 -0.1846
  956SOL    HW2 3461   6.773   3.747   2.033 -0.2291 -0.0823  0.4243
  957SOL     OW 3462   2.261   4.508   1.532  0.5968  0.8769 -0.0901
  957SOL    HW1 3463   2.309   4.430   1.561 -1.8387 -0.6444  0.1375
  957SOL    HW2 3464   2.271   4.571   1.603  1.0317  0.0381  0.6117
  958SOL     OW 3465   6.282   5.120   0.345  0.0719  0.1204  0.3073
  958SOL    HW1 3466   6.252   5.164   0.266  0.0949 -2.4472 -1.2537
  958SOL    HW2 3467   6.378   5.122   0.339  0.1954  2.3095  1.7727
  959SOL     OW 3468   1.014   5.245   0.157  0.4651 -0.1473 -0.8114
  959SOL    HW1 3469   1.087   5.184   0.154 -0.9655 -2.0617  0.4022
  959SOL    HW2 3470   0.967   5.231   0.075  0.2011 -0.6280 -0.5827
  960SOL     OW 3471   0.941   3.852   1.590 -0.7290  0.1150 -0.0128
  960SOL    HW1 3472   0.949   3.770   1.639  0.2304  0.0581 -0.2473
  960SOL    HW2 3473   1.025   3.862   1.546 -1.4054  0.3898 -1.3017
  961SOL     OW 3474   0.641   3.973   1.873  0.3944 -0.1437  0.0304
  961SOL    HW1 3475   0.670   3.996   1.962 -0.4149  0.4765  0.1462
  961SOL    HW2 3476   0.691   4.032   1.816  3.0004 -2.3582 -0.2162
  962SOL     OW 3477   1.458   5.454   1.566 -0.3780 -0.0317 -1.0005
  962SOL    HW1 3478   1.537   5.405   1.541  0.8039  1.1181  0.2722
  962SOL    HW2 3479   1.484   5.501   1.645 -2.3554  0.4251 -0.5873
  963SOL     OW 3480   1.873   4.052   2.439 -0.4806 -0.0352 -0.4473
  963SOL    HW1 3481   1.929   3.976   2.456 -1.8164 -0.5857  2.1324
  963SOL    HW2 3482   1.791   4.015   2.409 -0.3422  0.5858 -1.6269
  964SOL     OW 3483   2.691   3.100   0.431  1.0768  0.5104  0.0907
  964SOL    HW1 3484   2.685   3.024   0.489  0.8125  1.0019  0.7243
  964SOL    HW2 3485   2.744   3.070   0.357 -1.0858 -1.0450 -0.9167
  965SOL     OW 3486   1.551   4.537   0.881  0.2720  0.0961  0.7238
  965SOL    HW1 3487   1.476   4.477   0.883 -0.5915  1.0975 -0.2937
  965SOL    HW2 3488   1.516   4.618   0.843  1.7361  0.7939  0.7925
  966SOL     OW 3489   2.444   3.321   2.040  0.0656  0.3312  0.3933
  966SOL    HW1 3490   2.382   3.293   1.973  0.9436 -1.6993  0.3429
  966SOL    HW2 3491   2.522   3.347   1.990  0.7792 -1.3367  0.5486
  967SOL     OW 3492   2.580   4.734   1.963 -0.2479 -0.1606  0.5937
  967SOL    HW1 3493   2.555   4.645   1.938  1.4069 -1.0308  1.8822
  967SOL    HW2 3494   2.559   4.787   1.886 -0.1835 -1.8477 -0.6362
  968SOL     OW 3495   1.129   0.806   1.716 -0.1174 -0.1374 -0.4002
  968SOL    HW1 3496   1.073   0.732   1.690 -0.3068  0.4498 -1.7338
  968SOL    HW2 3497   1.214   0.786   1.678  0.6757 -1.0574  1.6735
  969SOL     OW 3498   0.734   3.769   0.331 -0.0016  0.1154  0.3049
  969SOL    HW1 3499   0.797   3.798   0.265  0.8314 -0.0413  1.0195
  969SOL    HW2 3500   0.675   3.843   0.343  0.1219  0.3123 -0.2611
  970SOL     OW 3501   0.632   4.517   2.932 -0.2733 -0.1413  0.1807
  970SOL    HW1 3502   0.614   4.496   2.841  0.7023 -0.6714  0.1017
  970SOL    HW2 3503   0.546   4.537   2.969 -0.6787  0.0595 -0.8412
  971SOL     OW 3504   1.788   0.214   0.907 -0.2426  0.0712 -0.0409
  971SOL    HW1 3505   1.728   0.147   0.875  0.3989  0.2448 -1.6639
  971SOL    HW2 3506   1.762   0.227   0.999 -1.8979 -0.7039 -0.3642
  972SOL     OW 3507   0.344   3.775   1.295  0.2354  0.1027  0.4929
  972SOL    HW1 3508   0.281   3.840   1.326 -3.3489 -2.3071 -1.0782
  972SOL    HW2 3509   0.356   3.795   1.202  1.2983  0.1225  0.6239
  973SOL     OW 3510   0.284   4.541   0.115 -0.0514  0.2843  0.1283
  973SOL    HW1 3511   0.334   4.527   0.035 -0.9001  0.7377 -0.4924
  973SOL    HW2 3512   0.300   4.632   0.139 -0.8376  0.5365 -0.2688
  974SOL     OW 3513   2.448   4.802   2.474 -0.1183 -0.2401  0.3558
  974SOL    HW1 3514   2.423   4.891   2.500  1.2333  0.5451 -0.8961
  974SOL    HW2 3515   2.408   4.746   2.541 -1.9834  1.1960  0.5383
  975SOL     OW 3516   6.746   4.444   0.547  0.0380  0.0275  0.5285
  975SOL    HW1 3517   6.673   4.506   0.544  0.4642  0.5143  0.2212
  975SOL    HW2 3518   6.713   4.372   0.601 -1.2782 -0.5501 -0.9899
  976SOL     OW 3519   1.677   4.823   1.002  0.3176 -0.1534 -0.3582
  976SOL    HW1 3520   1.590   4.855   0.978  0.9801  1.0275 -1.2622
  976SOL    HW2 3521   1.732   4.842   0.926  1.3052 -1.1948  0.0643
  977SOL     OW 3522   7.414   3.828   0.957 -0.0599 -0.4071  0.5594
  977SOL    HW1 3523   7.428   3.866   1.043  1.0010  0.8401 -0.1204
  977SOL    HW2 3524   7.321   3.841   0.939 -0.1221  0.0516  1.1968
  978SOL     OW 3525   7.465   4.471   0.585  0.2304 -0.2863  0.0623
  978SOL    HW1 3526   7.524   4.403   0.552 -1.3176 -1.9268  0.4583
  978SOL    HW2 3527   7.523   4.540   0.617  2.0291 -2.3700  1.6831
  979SOL     OW 3528   1.756   2.770   0.751 -0.3554 -0.3717  0.3136
  979SOL    HW1 3529   1.723   2.794   0.838 -0.4970 -3.0418  1.0692
  979SOL    HW2 3530   1.712   2.687   0.730  2.2220 -1.5631 -0.7906
  980SOL     OW 3531   1.091   0.148   0.593  0.9163  0.0207 -0.2338
  980SOL    HW1 3532   1.181   0.163   0.563  0.6584  1.8996 -0.1619
  980SOL    HW2 3533   1.064   0.231   0.631 -0.2767 -1.0268  1.3343
  981SOL     OW 3534   6.963   0.512   1.079  0.2292 -0.1292  0.7765
  981SOL    HW1 3535   6.944   0.421   1.053 -0.2962  0.4245 -0.8785
  981SOL    HW2 3536   7.041   0.535   1.029 -0.4005  0.7510  0.1806
  982SOL     OW 3537   1.126   3.355   2.892 -0.4104  0.0048  0.0165
  982SOL    HW1 3538   1.100   3.265   2.910 -2.6196  0.3834 -0.9608
  982SOL    HW2 3539   1.143   3.357   2.798  1.4888  0.2210  0.3249
  983SOL     OW 3540   0.701   3.539   0.168 -0.6127 -0.1072 -0.2528
  983SOL    HW1 3541   0.757   3.603   0.213  0.6979 -0.3919 -1.4159
  983SOL    HW2 3542   0.702   3.462   0.224  1.6558 -0.7436 -1.0689
  984SOL     OW 3543   1.407   3.782   0.839  0.1007 -0.3322  0.2980
  984SOL    HW1 3544   1.345   3.786   0.767  1.0712  0.1152 -0.5300
  984SOL    HW2 3545   1.395   3.865   0.886 -1.1053 -0.9639  1.1751
  985SOL     OW 3546   7.237   0.732   3.255  0.0949  0.0973  0.4057
  985SOL    HW1 3547   7.273   0.795   3.317  0.8008  0.3757 -0.2705
  985SOL    HW2 3548   7.214   0.784   3.178 -2.6329  0.0934  1.1140
  986SOL     OW 3549   7.043   4.252   2.259  0.4094  0.3597  0.2133
  986SOL    HW1 3550   7.065   4.165   2.292 -1.1598 -1.0231 -2.1617
  986SOL    HW2 3551   6.958   4.272   2.299 -0.9648 -0.8462 -1.9094
  987SOL     OW 3552   7.112   3.874   2.693 -0.3541  0.1921  0.0101
  987SOL    HW1 3553   7.135   3.873   2.786  3.2104  0.0432 -0.6979
  987SOL    HW2 3554   7.077   3.962   2.677  0.7119  0.8653  1.1925
  988SOL     OW 3555   6.864   3.718   1.248 -0.5119  0.6182 -0.5251
  988SOL    HW1 3556   6.835   3.755   1.164 -0.3199 -2.7516 -2.2242
  988SOL    HW2 3557   6.783   3.695   1.293 -0.6013  1.9483  0.0452
  989SOL     OW 3558   2.021   0.132   1.524 -0.0114  0.0649  0.3784
  989SOL    HW1 3559   2.012   0.227   1.531  1.3490  0.1227  1.9418
  989SOL    HW2 3560   2.104   0.118   1.479 -0.0901 -0.3817  0.3643
  990SOL     OW 3561   1.972   4.815   0.063 -0.1497  0.3120 -0.4659
  990SOL    HW1 3562   1.897   4.861   0.024 -0.8320 -0.0058  0.4445
  990SOL    HW2 3563   1.981   4.854   0.150 -0.5434 -1.0563  0.2025
  991SOL     OW 3564   1.661   4.863   2.764  0.4744 -0.4678  0.7023
  991SOL    HW1 3565   1.632   4.948   2.796 -0.3625 -0.5103  0.1050
  991SOL    HW2 3566   1.581   4.810   2.761  0.7255 -0.8192 -0.2893
  992SOL     OW 3567   1.226   4.256   1.952  0.4972  0.2184 -0.0111
  992SOL    HW1 3568   1.155   4.318   1.933 -1.1364 -1.9128 -1.4016
  992SOL    HW2 3569   1.302   4.292   1.905  0.2156  2.2042  0.9430
  993SOL     OW 3570   0.795   0.368   1.022 -0.4361  0.1173  0.6982
  993SOL    HW1 3571   0.874   0.365   1.075  0.0824 -1.3847 -0.1009
  993SOL    HW2 3572   0.741   0.297   1.057 -1.5508  1.2442  1.3586
  994SOL     OW 3573   0.977   5.089   2.341  0.4777  0.8035  0.1416
  994SOL    HW1 3574   0.943   5.031   2.409  3.3474 -2.4893 -0.9199
  994SOL    HW2 3575   1.059   5.123   2.378  1.3038  0.1752 -1.0531
  995SOL     OW 3576   7.251   4.574   2.761  0.7440 -0.5097  0.4759
  995SOL    HW1 3577   7.155   4.579   2.761  0.7766  0.3044  0.5064
  995SOL    HW2 3578   7.274   4.543   2.674  0.4808  0.1482  0.1647
  996SOL     OW 3579   1.824   5.171   2.852  0.1264  0.9656 -0.0593
  996SOL    HW1 3580   1.914   5.202   2.839  0.1223  1.2449  0.5386
  996SOL    HW2 3581   1.834   5.087   2.898  0.1258  0.1953 -1.4036
  997SOL     OW 3582   7.262   4.878   1.927 -0.1079 -0.3552 -0.1466
  997SOL    HW1 3583   7.315   4.872   1.848  1.7758  0.4081  0.9779
  997SOL    HW2 3584   7.301   4.814   1.987  0.2357  0.9409  1.0617
  998SOL     OW 3585   2.192   4.083   0.647  0.0229  0.1938  0.3770
  998SOL    HW1 3586   2.098   4.082   0.665 -0.3588 -0.0823 -1.4210
  998SOL    HW2 3587   2.233   4.078   0.733 -1.6091 -0.2056  1.1704
  999SOL     OW 3588   7.014   4.563   2.189 -0.2418 -0.1986 -0.3307
  999SOL    HW1 3589   6.921   4.551   2.207 -0.3147 -0.2972 -0.7771
  999SOL    HW2 3590   7.052   4.475   2.195 -0.1115 -0.1065  0.2225
 1000SOL     OW 3591   0.006   5.401   3.125  0.1213  0.6148 -0.1340
 1000SOL    HW1 3592   0.034   5.410   3.033 -1.0835 -0.2267 -0.6066
 1000SOL    HW2 3593  -0.088   5.419   3.123 -0.4553 -1.9182  0.4669
 1001SOL     OW 3594   0.206   4.814   1.368  0.1219  1.1094 -0.2613
 1001SOL    HW1 3595   0.161   4.876   1.310  0.8332 -1.2195 -3.5594
 1001SOL    HW2 3596   0.145   4.741   1.378  0.7555  0.6585  0.4182
 1002SOL     OW 3597   1.345   2.988   2.775 -0.5921 -0.1283 -0.3009
 1002SOL    HW1 3598   1.426   3.021   2.814  0.0707 -1.2544 -0.7195
 1002SOL    HW2 3599   1.337   2.899   2.807 -0.7609 -0.6112 -1.6352
 1003SOL     OW 3600   7.501   2.943   3.441 -0.1807 -0.3188  0.6267
 1003SOL    HW1 3601   7.506   3.001   3.517  0.8442 -1.5151  1.5073
 1003SOL    HW2 3602   7.565   2.978   3.379 -1.5782  1.1331 -0.0808
 1004SOL     OW 3603   1.058   1.362   0.897 -0.2443  0.1108  0.3385
 1004SOL    HW1 3604   1.026   1.409   0.820 -0.2501  0.0048  0.2764
 1004SOL    HW2 3605   1.141   1.323   0.868 -1.5495 -2.2632 -0.4979
 1005SOL     OW 3606   1.302   3.317   1.645 -0.4398  0.0929  0.1665
 1005SOL    HW1 3607   1.371   3.372   1.684 -2.2901  2.0381  0.9107
 1005SOL    HW2 3608   1.233   3.314   1.711 -2.6903  1.4892 -1.9308
 1006SOL     OW 3609   2.155   3.699   0.317  0.1741 -0.5098  0.1683
 1006SOL    HW1 3610   2.077   3.657   0.353  0.1495 -0.7447 -0.1582
 1006SOL    HW2 3611   2.205   3.726   0.394 -0.7521  0.6385  0.3802
 1007SOL     OW 3612   1.179   5.294   2.851 -0.3976  0.3725  0.3506
 1007SOL    HW1 3613   1.109   5.314   2.913  0.2742  1.7609  0.7252
 1007SOL    HW2 3614   1.260   5.318   2.898  0.3107 -0.8401 -0.1995
 1008SOL     OW 3615   1.478   5.031   2.565  0.1054  0.0816 -0.4282
 1008SOL    HW1 3616   1.434   5.044   2.649  0.1538 -0.3478 -0.3391
 1008SOL    HW2 3617   1.521   5.115   2.548  0.6801 -0.0527  0.3110
 1009SOL     OW 3618   1.312   0.561   2.909  0.0638  0.2540  0.7009
 1009SOL    HW1 3619   1.299   0.647   2.948 -1.9235  0.4159 -0.2021
 1009SOL    HW2 3620   1.248   0.557   2.838  1.5730 -1.1555 -0.6440
 1010SOL     OW 3621   2.095   3.941   3.259 -0.4892 -0.2042  0.0233
 1010SOL    HW1 3622   2.140   3.873   3.309  0.8442 -0.6676 -1.7328
 1010SOL    HW2 3623   2.157   3.966   3.190 -1.3172  2.1102  0.0131
 1011SOL     OW 3624   0.301   4.273   1.390  0.1308 -0.0198  0.2556
 1011SOL    HW1 3625   0.217   4.304   1.355  0.3315 -0.7782 -0.9465
 1011SOL    HW2 3626   0.365   4.296   1.324  0.6089 -1.0106  0.3557
 1012SOL     OW 3627   0.874   5.335   2.357  0.3249 -0.0485  0.3306
 1012SOL    HW1 3628   0.805   5.347   2.291  0.8855 -0.3199 -0.3143
 1012SOL    HW2 3629   0.898   5.242   2.348  0.7355  0.0348  0.5924
 1013SOL     OW 3630   2.065   4.873   2.273  0.1779 -0.1391  0.5236
 1013SOL    HW1 3631   1.975   4.860   2.241  0.0558  1.1754  0.2859
 1013SOL    HW2 3632   2.080   4.799   2.332 -1.5600  0.3453  1.6412
 1014SOL     OW 3633   0.564   4.762   0.737 -0.1040 -0.2215 -0.2198
 1014SOL    HW1 3634   0.559   4.735   0.646 -0.1532 -1.7018  0.1950
 1014SOL    HW2 3635   0.605   4.688   0.782 -0.7415  0.1716  1.0702
 1015SOL     OW 3636   3.001   4.822   3.295 -1.0471  0.1344  0.7403
 1015SOL    HW1 3637   2.923   4.824   3.240 -0.4674  0.7465 -0.0833
 1015SOL    HW2 3638   2.969   4.847   3.382 -2.0559 -1.2920  0.8222
 1016SOL     OW 3639   1.335   4.487   2.875 -0.0379  0.2374 -0.2518
 1016SOL    HW1 3640   1.405   4.455   2.818  0.6748  1.6236 -0.2062
 1016SOL    HW2 3641   1.359   4.456   2.962  0.3809  0.4637 -0.2823
 1017SOL     OW 3642   0.685   2.641   1.235 -0.2533 -0.3083 -0.2303
 1017SOL    HW1 3643   0.649   2.688   1.310 -0.8504 -0.3213 -0.5085
 1017SOL    HW2 3644   0.609   2.604   1.190 -0.0004  0.5885 -1.4460
 1018SOL     OW 3645   1.138   3.475   3.275 -0.5318 -0.4514  0.1510
 1018SOL    HW1 3646   1.059   3.433   3.308 -0.0112 -1.4143  0.1986
 1018SOL    HW2 3647   1.210   3.428   3.317  0.0926 -0.2443 -0.6581
 1019SOL     OW 3648   0.471   3.733   3.381  0.5608  0.1965  0.6633
 1019SOL    HW1 3649   0.427   3.814   3.354 -0.3404 -0.7324 -0.8002
 1019SOL    HW2 3650   0.492   3.689   3.299  1.9844 -0.5907  1.4127
 1020SOL     OW 3651   1.570   4.361   0.339  0.2366  0.0861  0.5872
 1020SOL    HW1 3652   1.619   4.280   0.357  0.3855  0.4771  2.0584
 1020SOL    HW2 3653   1.611   4.396   0.260  1.1935 -0.4895  0.8109
 1021SOL     OW 3654   0.334   4.344   2.882  0.0670 -0.0941  0.6422
 1021SOL    HW1 3655   0.412   4.315   2.835 -0.1245  0.0738  0.2119
 1021SOL    HW2 3656   0.272   4.367   2.812 -0.4930 -0.5742  0.9788
 1022SOL     OW 3657   6.560   0.867   3.542  0.1340  0.2300 -0.2406
 1022SOL    HW1 3658   6.553   0.772   3.543 -1.3423  0.3213 -0.1445
 1022SOL    HW2 3659   6.633   0.886   3.601  0.3407 -0.8389 -0.1338
 1023SOL     OW 3660   6.979   4.708   1.634 -0.3123 -0.2014 -0.4812
 1023SOL    HW1 3661   6.973   4.672   1.723  2.1629 -0.9701 -0.5362
 1023SOL    HW2 3662   7.028   4.789   1.645  0.1963 -0.4089 -1.1450
 1024SOL     OW 3663   0.511   4.936   3.101  0.1637  0.0693 -0.2868
 1024SOL    HW1 3664   0.442   4.970   3.044 -0.4327 -0.8881 -0.1479
 1024SOL    HW2 3665   0.465   4.880   3.164  0.4830  2.6029  2.4491
 1025SOL     OW 3666   0.761   3.815   2.620 -0.0283 -0.2494  0.0911
 1025SOL    HW1 3667   0.813   3.738   2.642 -2.0504 -1.7399 -0.0130
 1025SOL    HW2 3668   0.726   3.845   2.704 -0.9767 -0.7892 -0.0991
 1026SOL     OW 3669   1.562   0.479   2.976  0.1618 -0.4383  0.0543
 1026SOL    HW1 3670   1.471   0.500   2.958  0.1921 -0.7824 -0.5496
 1026SOL    HW2 3671   1.578   0.397   2.928  0.7526 -0.4488  0.2527
 1027SOL     OW 3672   3.215   4.185   2.923 -0.2183 -0.0840 -0.5040
 1027SOL    HW1 3673   3.170   4.242   2.986 -2.8890  0.0855 -2.4307
 1027SOL    HW2 3674   3.262   4.122   2.978 -1.9267  0.4274  1.6997
 1028SOL     OW 3675   1.879   0.007   1.130  0.2032  0.0177  0.1785
 1028SOL    HW1 3676   1.932   0.048   1.062  0.3583 -0.4669  0.0017
 1028SOL    HW2 3677   1.916   0.038   1.212 -0.6801  1.4959  0.0591
 1029SOL     OW 3678   1.018   4.691   1.704  0.5042 -0.0448 -0.0850
 1029SOL    HW1 3679   1.071   4.622   1.666  0.3632 -0.6114  0.7305
 1029SOL    HW2 3680   1.031   4.766   1.646  1.5452 -0.4160 -0.3536
 1030SOL     OW 3681   2.681   4.403   2.988  0.5327 -0.2358 -0.1433
 1030SOL    HW1 3682   2.680   4.381   3.081  2.2245  0.5260  0.1031
 1030SOL    HW2 3683   2.717   4.325   2.945  1.5067  0.0662  0.0914
 1031SOL     OW 3684   6.630   0.319   0.005 -0.5700  0.0823  0.5063
 1031SOL    HW1 3685   6.589   0.338  -0.079  1.3069 -0.6351 -0.6390
 1031SOL    HW2 3686   6.640   0.405   0.047  0.2234  0.6957 -0.8738
 1032SOL     OW 3687   3.100   0.502   3.436  0.0739  0.5038  0.3077
 1032SOL    HW1 3688   3.129   0.590   3.462 -0.0732  1.3709 -2.1847
 1032SOL    HW2 3689   3.165   0.444   3.475  1.4054  1.9003  0.3026
 1033SOL     OW 3690   2.921   3.481   2.529 -0.0761 -0.0509 -0.4569
 1033SOL    HW1 3691   2.963   3.472   2.443 -1.4943 -0.1567 -1.1723
 1033SOL    HW2 3692   2.980   3.437   2.590  0.7285 -0.3918 -1.4619
 1034SOL     OW 3693   0.262   0.218   2.010 -0.3721 -1.0106 -0.0779
 1034SOL    HW1 3694   0.286   0.133   1.972  0.0895 -0.4489 -1.0739
 1034SOL    HW2 3695   0.229   0.196   2.097  0.3863 -2.1550 -0.0498
 1035SOL     OW 3696   0.966   4.342   0.786 -0.3864 -0.1058 -0.0513
 1035SOL    HW1 3697   0.985   4.259   0.741 -0.4908  0.1477 -0.5694
 1035SOL    HW2 3698   0.943   4.316   0.875  2.7468 -0.4366  0.7889
 1036SOL     OW 3699   0.569   0.550   2.605  0.0431 -0.4364  0.0699
 1036SOL    HW1 3700   0.554   0.472   2.552  1.5834 -0.4221 -0.4509
 1036SOL    HW2 3701   0.571   0.622   2.543  3.1773 -0.5671 -0.1836
 1037SOL     OW 3702   1.214   5.047   0.226 -0.3535 -0.1184  0.1974
 1037SOL    HW1 3703   1.200   5.102   0.302 -2.6214 -0.2119 -0.1038
 1037SOL    HW2 3704   1.306   5.060   0.203 -0.4734  2.4413  0.9658
 1038SOL     OW 3705   0.873   4.334   2.888 -0.0574  0.4334 -0.7223
 1038SOL    HW1 3706   0.943   4.389   2.921 -0.0518  0.1132 -0.1944
 1038SOL    HW2 3707   0.835   4.294   2.966 -2.3313  2.3539 -0.7337
 1039SOL     OW 3708   1.704   4.202   2.979  0.0399  0.2929 -0.1780
 1039SOL    HW1 3709   1.734   4.124   2.933  2.6028  0.8392  0.3716
 1039SOL    HW2 3710   1.676   4.262   2.910  0.0148 -0.3526 -0.7333
 1040SOL     OW 3711   0.454   4.467   0.686  0.1719 -0.8492 -0.2901
 1040SOL    HW1 3712   0.391   4.530   0.651  0.0059  0.2276  1.7578
 1040SOL    HW2 3713   0.485   4.419   0.610  0.2356  1.6291 -1.9530
 1041SOL     OW 3714   0.994   0.028   1.507 -0.2560  0.3307 -0.5831
 1041SOL    HW1 3715   0.982  -0.060   1.542 -2.6346  1.1826  1.0166
 1041SOL    HW2 3716   1.066   0.065   1.560 -1.0132  0.1878  0.5881
 1042SOL     OW 3717   0.254   3.386   1.098 -0.2526  0.4135 -0.3030
 1042SOL    HW1 3718   0.295   3.463   1.059 -0.9398  0.8326 -0.2150
 1042SOL    HW2 3719   0.167   3.382   1.057 -0.5339  0.1762  0.3061
 1043SOL     OW 3720   2.906   4.497   0.837 -0.0794  0.6093 -0.1702
 1043SOL    HW1 3721   2.814   4.475   0.851 -0.3128  0.2350 -1.9728
 1043SOL    HW2 3722   2.950   4.413   0.824  0.2106  0.8503 -0.8298
 1044SOL     OW 3723   1.229   4.922   2.559 -0.4546 -0.5846 -0.3888
 1044SOL    HW1 3724   1.197   4.927   2.649 -0.8716 -2.1066 -0.4125
 1044SOL    HW2 3725   1.302   4.982   2.556 -0.5909 -0.3200  0.9059
 1045SOL     OW 3726   0.410   5.325   2.861 -0.1050 -0.3217  0.4198
 1045SOL    HW1 3727   0.440   5.404   2.908  0.5505  0.1230 -0.7101
 1045SOL    HW2 3728   0.476   5.259   2.882 -0.3541 -0.4225  0.9153
 1046SOL     OW 3729   7.393   4.771   3.246 -0.6203  0.6449 -0.1283
 1046SOL    HW1 3730   7.391   4.722   3.164 -0.4042  1.8936 -0.9086
 1046SOL    HW2 3731   7.393   4.863   3.219  1.0562  1.0955  1.2265
 1047SOL     OW 3732   0.651   4.191   0.965  0.4030 -0.0619 -0.1730
 1047SOL    HW1 3733   0.665   4.237   1.048  1.0321 -1.6719  0.6504
 1047SOL    HW2 3734   0.560   4.209   0.942  0.2192  0.3845  0.8717
 1048SOL     OW 3735   0.038   4.438   0.173 -0.4328  0.5391  0.2335
 1048SOL    HW1 3736   0.119   4.471   0.133 -0.4320  0.0428 -0.1779
 1048SOL    HW2 3737  -0.017   4.516   0.182  0.3260  0.9937  1.1060
 1049SOL     OW 3738   0.036   4.403   2.412  0.3003  0.1432 -0.0811
 1049SOL    HW1 3739   0.104   4.337   2.426  0.6485  0.5059 -0.0523
 1049SOL    HW2 3740   0.028   4.410   2.317 -0.0864 -0.2927 -0.0854
 1050SOL     OW 3741   0.824   3.714   1.841 -0.1621 -0.1825 -0.5113
 1050SOL    HW1 3742   0.791   3.707   1.930 -0.9139  0.1004 -0.7584
 1050SOL    HW2 3743   0.760   3.770   1.796  1.1715  1.2311 -0.7520
 1051SOL     OW 3744   7.450   4.154   2.045 -0.9044 -0.1290 -0.0426
 1051SOL    HW1 3745   7.372   4.209   2.043 -0.1313  1.1203  1.9015
 1051SOL    HW2 3746   7.427   4.081   2.102 -0.6303  0.3228  0.6608
 1052SOL     OW 3747   1.838   0.072   2.776 -0.0852 -0.2017  0.4195
 1052SOL    HW1 3748   1.794   0.045   2.695 -0.6484  1.2079  0.2299
 1052SOL    HW2 3749   1.928   0.089   2.750 -0.3228  0.4892  0.0160
 1053SOL     OW 3750   2.692   4.222   0.823 -0.0537 -0.2010  0.5740
 1053SOL    HW1 3751   2.603   4.191   0.806 -0.5073  1.4086 -0.1977
 1053SOL    HW2 3752   2.682   4.289   0.890  0.7654 -0.9322  1.4531
 1054SOL     OW 3753   1.452   4.315   3.083 -0.2759 -0.4411 -1.4957
 1054SOL    HW1 3754   1.400   4.243   3.119 -0.7127  0.7930  0.5896
 1054SOL    HW2 3755   1.530   4.274   3.048 -0.0849 -1.8973  0.4504
 1055SOL     OW 3756   6.568   5.340   1.807 -0.0845 -0.0166  0.3954
 1055SOL    HW1 3757   6.569   5.435   1.806  0.8211 -0.0190 -0.4979
 1055SOL    HW2 3758   6.567   5.317   1.900  1.8000  0.8707  0.6877
 1056SOL     OW 3759   2.235   4.433   3.084  0.1218 -0.3160  0.1444
 1056SOL    HW1 3760   2.169   4.365   3.077 -1.7795  1.4478  0.0820
 1056SOL    HW2 3761   2.224   4.486   3.005  2.2733 -0.4914 -0.3417
 1057SOL     OW 3762   1.455   4.705   1.611 -0.2599  0.0102 -0.1263
 1057SOL    HW1 3763   1.493   4.726   1.696  0.4333 -0.0899 -0.4036
 1057SOL    HW2 3764   1.384   4.769   1.600 -1.5357 -1.1029  1.2888
 1058SOL     OW 3765   0.659   4.560   2.307 -0.3593  0.3431 -0.3689
 1058SOL    HW1 3766   0.586   4.620   2.291 -0.2330  0.3289 -1.0026
 1058SOL    HW2 3767   0.736   4.616   2.313 -0.5595  0.4973  1.5599
 1059SOL     OW 3768   1.233   3.704   3.375  0.5609  0.0741  0.0159
 1059SOL    HW1 3769   1.224   3.628   3.318  2.0207 -0.3446  0.3170
 1059SOL    HW2 3770   1.181   3.681   3.453  1.2080 -0.7307  0.2192
 1060SOL     OW 3771   2.386   0.017   2.992  0.5371  0.0096  0.1287
 1060SOL    HW1 3772   2.444  -0.022   3.057  0.7049 -0.9948 -0.5949
 1060SOL    HW2 3773   2.384  -0.047   2.920  0.1738  0.9832 -0.7498
 1061SOL     OW 3774   2.221   0.715   3.233 -0.1381 -0.2071 -0.7299
 1061SOL    HW1 3775   2.193   0.640   3.285  1.3543 -2.0955 -2.4369
 1061SOL    HW2 3776   2.140   0.755   3.202 -0.9793 -0.7682  0.6532
 1062SOL     OW 3777   0.965   0.188   3.044 -0.4696  0.0724  0.2566
 1062SOL    HW1 3778   1.015   0.216   2.967 -0.6200  0.2939  0.2395
 1062SOL    HW2 3779   0.874   0.199   3.019 -0.5240 -0.0809  0.3836
 1063SOL     OW 3780   3.607   4.514   2.331  0.3165 -0.2746  0.6677
 1063SOL    HW1 3781   3.620   4.449   2.401  1.8275 -0.0106  0.6641
 1063SOL    HW2 3782   3.639   4.470   2.252  2.0894  0.6925  0.7924
 1064SOL     OW 3783   7.191   5.292   2.757  0.8108 -0.0013  0.4901
 1064SOL    HW1 3784   7.242   5.219   2.722 -0.7532 -0.7840 -0.2564
 1064SOL    HW2 3785   7.144   5.256   2.831 -0.3655  0.0786 -0.1879
 1065SOL     OW 3786   1.946   4.938   2.970 -0.1438 -0.1375  0.0306
 1065SOL    HW1 3787   2.008   4.870   2.995 -0.1591  0.3735  1.5518
 1065SOL    HW2 3788   1.869   4.922   3.025 -0.9388 -0.1001 -1.0447
 1066SOL     OW 3789   1.157   3.994   0.479  0.2955 -0.2805  0.5843
 1066SOL    HW1 3790   1.224   3.961   0.420 -0.1881  1.7414 -1.2047
 1066SOL    HW2 3791   1.152   4.088   0.461 -0.7160  0.2325  3.0306
 1067SOL     OW 3792   1.173   3.663   2.150 -1.0066 -0.0923  0.0815
 1067SOL    HW1 3793   1.157   3.731   2.216  2.3318  0.3935  0.5718
 1067SOL    HW2 3794   1.192   3.713   2.070 -0.6787 -0.5088 -0.1023
 1068SOL     OW 3795   0.056   0.520   0.415 -0.6840 -0.2944  0.1418
 1068SOL    HW1 3796   0.119   0.460   0.456 -1.0627 -0.2585  0.7940
 1068SOL    HW2 3797   0.033   0.478   0.333  2.1576  0.9222 -1.4174
 1069SOL     OW 3798   7.428   5.100   1.275  0.2350 -0.2338  0.1322
 1069SOL    HW1 3799   7.514   5.118   1.314 -0.0577 -0.6358  0.9757
 1069SOL    HW2 3800   7.448   5.042   1.201  0.8260  0.8057 -0.5462
 1070SOL     OW 3801   0.386   4.010   2.917  0.3010  0.0737  0.1111
 1070SOL    HW1 3802   0.478   4.010   2.942  0.3876 -0.7044 -0.1796
 1070SOL    HW2 3803   0.351   4.092   2.952  1.4315  1.0638 -0.9935
 1071SOL     OW 3804   2.220   4.735   3.536 -0.2987 -0.0839  0.4267
 1071SOL    HW1 3805   2.129   4.752   3.558 -0.0558  0.5564  0.9578
 1071SOL    HW2 3806   2.216   4.665   3.471 -1.2058  0.4386 -0.1025
 1072SOL     OW 3807   2.600   5.312   0.049  0.2661 -0.1182 -0.5294
 1072SOL    HW1 3808   2.616   5.218   0.039  0.4124 -0.0005 -1.4157
 1072SOL    HW2 3809   2.595   5.346  -0.040 -0.3466  0.6269 -0.2246
 1073SOL     OW 3810   1.697   3.966   2.804  0.0361 -0.2925  0.4185
 1073SOL    HW1 3811   1.749   4.030   2.754 -3.5118  0.9917 -2.0272
 1073SOL    HW2 3812   1.708   3.884   2.756  3.3896 -1.4373  2.7143
 1074SOL     OW 3813   1.546   5.194   3.277 -0.0186 -0.2286  0.3280
 1074SOL    HW1 3814   1.458   5.165   3.303 -0.8866  0.7164 -1.3918
 1074SOL    HW2 3815   1.596   5.195   3.359 -1.5902 -0.8333  1.3421
 1075SOL     OW 3816   7.188   3.711   0.421  0.1240 -0.1400 -0.1449
 1075SOL    HW1 3817   7.185   3.638   0.483  0.6624 -1.1618 -1.2930
 1075SOL    HW2 3818   7.280   3.719   0.397  0.0903  1.0068  0.0457
 1076SOL     OW 3819   1.768   3.483   0.278  0.1538  0.1863 -0.2831
 1076SOL    HW1 3820   1.715   3.407   0.254  1.1288 -0.6529  0.1442
 1076SOL    HW2 3821   1.783   3.528   0.195  0.1195 -0.4602 -0.6539
 1077SOL     OW 3822   1.633   4.804   0.209  0.3539 -0.3837 -0.0550
 1077SOL    HW1 3823   1.601   4.797   0.299  0.0394  0.5067 -0.0800
 1077SOL    HW2 3824   1.698   4.875   0.212  1.4238 -1.3309 -0.2552
 1078SOL     OW 3825   1.416   4.248   0.547  0.4699 -0.9918 -0.0118
 1078SOL    HW1 3826   1.474   4.176   0.570  1.9684  0.7844  2.1754
 1078SOL    HW2 3827   1.468   4.304   0.489 -0.2553 -0.9953 -0.7004
 1079SOL     OW 3828   1.110   3.728   0.905  0.5166  0.3529  0.1527
 1079SOL    HW1 3829   1.182   3.666   0.897  0.8925  0.8578 -0.4702
 1079SOL    HW2 3830   1.125   3.792   0.835 -0.6447  0.3595 -0.1135
 1080SOL     OW 3831   6.589   3.845   3.056 -0.0447  0.0323  0.0645
 1080SOL    HW1 3832   6.618   3.825   3.145  0.5074 -0.1223 -0.1440
 1080SOL    HW2 3833   6.626   3.931   3.038 -0.1070  0.0385 -0.0300
 1081SOL     OW 3834   6.927   0.096   0.418 -0.6608  0.2039 -0.6404
 1081SOL    HW1 3835   6.965   0.115   0.332  0.8758 -0.2191 -0.0709
 1081SOL    HW2 3836   6.951   0.006   0.436 -0.2590  0.5401  0.5901
 1082SOL     OW 3837   0.141   0.195   1.703 -0.0442  0.6255 -0.8202
 1082SOL    HW1 3838   0.070   0.175   1.642 -0.1347  1.2565 -0.9240
 1082SOL    HW2 3839   0.190   0.265   1.661  0.4414  0.4333 -0.5872
 1083SOL     OW 3840   0.647   4.064   2.120 -0.5155 -0.2916 -0.3691
 1083SOL    HW1 3841   0.554   4.051   2.139 -0.0721 -1.8409  1.0200
 1083SOL    HW2 3842   0.656   4.158   2.105 -2.6554 -0.3675 -2.7611
 1084SOL     OW 3843   1.901   4.151   2.719 -0.0547  0.1121 -0.4231
 1084SOL    HW1 3844   1.929   4.242   2.707  0.0383 -0.0904 -1.8742
 1084SOL    HW2 3845   1.918   4.109   2.635 -0.7756 -1.0798  0.0010
 1085SOL     OW 3846   7.172   4.003   2.427 -0.1618  0.2053 -0.1806
 1085SOL    HW1 3847   7.231   4.027   2.356  0.8398  2.1006  1.1948
 1085SOL    HW2 3848   7.208   3.922   2.463  0.1579  0.0174 -0.9179
 1086SOL     OW 3849   2.366   5.359   2.726 -0.3824 -0.4730 -0.2243
 1086SOL    HW1 3850   2.458   5.373   2.701 -0.2195 -0.8192  0.1724
 1086SOL    HW2 3851   2.316   5.400   2.655  0.0762 -0.0516 -0.3141
 1087SOL     OW 3852   2.738   5.158   1.655 -0.2033  0.6591  0.2390
 1087SOL    HW1 3853   2.774   5.217   1.721  0.2153  0.7383 -0.0558
 1087SOL    HW2 3854   2.685   5.214   1.598  1.1151  0.9946 -0.7322
 1088SOL     OW 3855   1.849   3.580   2.237  0.0423 -0.0052  0.3433
 1088SOL    HW1 3856   1.927   3.622   2.201  1.3801 -0.3930  2.5713
 1088SOL    HW2 3857   1.837   3.502   2.183  0.1881  0.8749 -1.0252
 1089SOL     OW 3858   0.887   4.691   2.673  0.2019 -0.0551 -0.7101
 1089SOL    HW1 3859   0.823   4.628   2.638 -0.3626  0.8714 -1.3986
 1089SOL    HW2 3860   0.970   4.643   2.673 -0.1157 -0.6341 -1.7154
 1090SOL     OW 3861   1.284   4.553   1.994  0.5482  0.1275 -0.0538
 1090SOL    HW1 3862   1.190   4.548   1.976  0.0518  0.7191  2.0559
 1090SOL    HW2 3863   1.326   4.516   1.916 -1.4530 -0.9965 -0.6630
 1091SOL     OW 3864   0.452   4.673   1.990 -0.7826  0.6293 -0.2858
 1091SOL    HW1 3865   0.543   4.691   1.964 -1.4038 -0.3270 -3.6088
 1091SOL    HW2 3866   0.443   4.716   2.075  2.5151  1.4814 -0.1986
 1092SOL     OW 3867   0.323   3.720   2.950 -0.4352 -0.3604  0.3836
 1092SOL    HW1 3868   0.237   3.700   2.914  0.5956 -1.2620 -1.8025
 1092SOL    HW2 3869   0.330   3.816   2.946 -0.5227 -0.3994 -1.5991
 1093SOL     OW 3870   7.049   5.209   2.019  0.1458 -0.4998  0.3624
 1093SOL    HW1 3871   6.971   5.264   2.023  0.1259 -0.3891 -1.0309
 1093SOL    HW2 3872   7.027   5.142   1.954  0.1480 -2.2298  2.0464
 1094SOL     OW 3873   7.218   4.952   2.716 -0.4373 -0.2261  0.0173
 1094SOL    HW1 3874   7.284   4.893   2.679  0.0675  0.9045 -0.9416
 1094SOL    HW2 3875   7.135   4.910   2.696 -0.1196 -0.2529 -1.3451
 1095SOL     OW 3876   0.599   5.162   1.231  0.6650 -0.0206  0.1632
 1095SOL    HW1 3877   0.560   5.115   1.305  1.4133  0.0304  0.5954
 1095SOL    HW2 3878   0.561   5.119   1.154  1.2412 -1.2829  0.5474
 1096SOL     OW 3879   1.587   3.293   3.424  0.0506 -0.5038  0.1246
 1096SOL    HW1 3880   1.677   3.300   3.457 -0.2081  3.0735  0.4418
 1096SOL    HW2 3881   1.597   3.278   3.330  1.0122  0.4634  0.0580
 1097SOL     OW 3882   0.611   4.604   3.338 -0.1524 -0.5599 -0.4610
 1097SOL    HW1 3883   0.582   4.543   3.406 -1.7317  0.2145 -0.4114
 1097SOL    HW2 3884   0.572   4.688   3.361 -1.5363 -0.4722 -2.8026
 1098SOL     OW 3885   2.058   3.856   2.456  0.3237  0.4308  0.0764
 1098SOL    HW1 3886   2.091   3.766   2.457 -2.5360 -0.7475 -0.5239
 1098SOL    HW2 3887   2.124   3.906   2.408  1.0380 -1.7760 -1.3805
 1099SOL     OW 3888   0.761   4.999   0.054  0.1826 -0.5160 -0.1911
 1099SOL    HW1 3889   0.691   5.062   0.071  0.9316 -0.0514  1.4054
 1099SOL    HW2 3890   0.822   5.046  -0.002  1.1595  0.5600  1.6770
 1100SOL     OW 3891   0.096   5.417   0.316  0.1080 -0.2340  0.8247
 1100SOL    HW1 3892   0.066   5.425   0.226 -1.4310  0.3111  1.3660
 1100SOL    HW2 3893   0.175   5.472   0.320  0.7830 -1.0620 -0.4130
 1101SOL     OW 3894   1.141   4.475   0.179 -0.0359 -0.4672 -0.0864
 1101SOL    HW1 3895   1.071   4.521   0.224  0.7642  0.3285  0.3825
 1101SOL    HW2 3896   1.096   4.418   0.116 -1.0889 -0.0462  0.2605
 1102SOL     OW 3897   1.040   4.444   1.913  0.5952  0.1467 -0.0809
 1102SOL    HW1 3898   0.992   4.409   1.988  1.7489  0.0300  0.6393
 1102SOL    HW2 3899   0.982   4.432   1.839 -0.6132  0.3274  0.8021
 1103SOL     OW 3900   1.604   4.919   0.531  0.2595 -0.4658  0.4580
 1103SOL    HW1 3901   1.690   4.953   0.558  1.5540 -0.8942 -2.6399
 1103SOL    HW2 3902   1.572   4.983   0.467 -1.4589 -0.6772  1.0493
 1104SOL     OW 3903   1.094   5.175   3.241  0.0111  0.4905 -0.3659
 1104SOL    HW1 3904   1.086   5.267   3.216 -2.9234  0.3121 -0.3818
 1104SOL    HW2 3905   1.043   5.127   3.177  2.4213 -1.3809 -1.0448
 1105SOL     OW 3906   0.921   5.319   1.802  0.1179 -0.1328  0.1084
 1105SOL    HW1 3907   0.884   5.249   1.856 -0.2529 -0.2989 -0.3563
 1105SOL    HW2 3908   0.999   5.280   1.762 -0.2933 -0.4062 -0.4411
 1106SOL     OW 3909   2.203   4.735   0.410  0.3412 -0.2393 -0.2888
 1106SOL    HW1 3910   2.213   4.807   0.347  2.1604 -1.1364 -1.0793
 1106SOL    HW2 3911   2.193   4.657   0.356  1.5760 -0.9841  0.5105
 1107SOL     OW 3912   1.957   0.633   2.647 -0.1690 -0.0449 -0.1985
 1107SOL    HW1 3913   1.982   0.696   2.580  2.8244  1.0761  1.7651
 1107SOL    HW2 3914   1.893   0.679   2.701  1.0257  0.8979  0.4589
 1108SOL     OW 3915   7.389   5.229   0.087 -0.5583  0.2385 -0.0270
 1108SOL    HW1 3916   7.406   5.304   0.029  1.0566  1.5010  1.9482
 1108SOL    HW2 3917   7.297   5.208   0.072 -1.0282  2.4987 -0.8145
 1109SOL     OW 3918   1.505   5.235   2.301  0.0593 -0.4234  0.0821
 1109SOL    HW1 3919   1.553   5.274   2.375  2.3282 -0.6660 -1.1758
 1109SOL    HW2 3920   1.574   5.202   2.243 -1.6738 -0.8050 -1.8460
 1110SOL     OW 3921   2.147   4.754   3.021 -0.0021 -0.2853  0.5217
 1110SOL    HW1 3922   2.205   4.735   2.948 -0.4763  0.2626 -0.0048
 1110SOL    HW2 3923   2.205   4.755   3.098  1.0489  2.1635 -0.2218
 1111SOL     OW 3924   1.508   4.353   2.350  0.0881  0.0622 -0.1123
 1111SOL    HW1 3925   1.442   4.314   2.293 -0.4216  0.0472  0.4668
 1111SOL    HW2 3926   1.551   4.419   2.296  0.6204 -0.9540 -0.9513
 1112SOL     OW 3927   0.540   5.054   0.497  0.1406 -0.3187  0.5302
 1112SOL    HW1 3928   0.576   4.972   0.464  0.8212 -0.6255  1.9670
 1112SOL    HW2 3929   0.607   5.088   0.557 -1.1981 -0.0099  1.9080
 1113SOL     OW 3930   0.302   4.734   2.780 -0.0926  0.3580 -0.3774
 1113SOL    HW1 3931   0.353   4.742   2.700 -0.3841  0.3910 -0.5609
 1113SOL    HW2 3932   0.227   4.680   2.756 -1.9104  2.9760 -0.9841
 1114SOL     OW 3933   2.515   2.569   2.659  0.2440  0.3125 -0.5135
 1114SOL    HW1 3934   2.489   2.632   2.727  1.2564 -1.0016  1.1831
 1114SOL    HW2 3935   2.549   2.494   2.708 -1.4893 -1.8699 -2.3909
 1115SOL     OW 3936   2.129   3.597   2.461 -0.3846  0.1096  0.1791
 1115SOL    HW1 3937   2.091   3.533   2.401 -0.5937 -0.0207  0.4469
 1115SOL    HW2 3938   2.180   3.545   2.523 -0.3451  0.2262  0.2456
 1116SOL     OW 3939   1.962   5.319   3.196  0.0544  0.5547  0.1650
 1116SOL    HW1 3940   1.982   5.230   3.166 -0.2906  0.5601 -0.0892
 1116SOL    HW2 3941   1.866   5.324   3.192 -0.0169  0.4781  1.5243
 1117SOL     OW 3942   0.880   4.639   3.198 -0.0904  0.1395  0.1198
 1117SOL    HW1 3943   0.827   4.630   3.119 -0.9017 -1.6811  0.8275
 1117SOL    HW2 3944   0.825   4.604   3.268  1.1465  0.4123  1.2706
 1118SOL     OW 3945   0.253   5.157   2.344  0.1459  0.6582  0.0502
 1118SOL    HW1 3946   0.187   5.206   2.393  1.3556  0.3713  2.1196
 1118SOL    HW2 3947   0.225   5.065   2.350  0.5801  0.5612  0.7352
 1119SOL     OW 3948   1.405   4.885   3.007 -0.2599  0.3386 -0.2754
 1119SOL    HW1 3949   1.356   4.811   2.972 -0.3273 -0.0845  0.6624
 1119SOL    HW2 3950   1.362   4.903   3.091  0.6881  0.4777  0.1858
 1120SOL     OW 3951   1.384   5.410   0.275  0.2015 -0.5073 -0.0438
 1120SOL    HW1 3952   1.422   5.481   0.224  0.7228 -0.5290  0.3051
 1120SOL    HW2 3953   1.314   5.375   0.220 -0.1468  0.3553 -0.1696
 1121SOL     OW 3954   0.912   0.102   2.692  0.3027 -0.2270 -0.0685
 1121SOL    HW1 3955   0.858   0.173   2.657  0.8880  0.1974 -0.1130
 1121SOL    HW2 3956   0.976   0.145   2.748  0.4971 -0.7445  0.1133
 1122SOL     OW 3957   0.040   4.851   0.260  0.2659  0.2573 -0.2643
 1122SOL    HW1 3958   0.078   4.848   0.348 -1.0814  1.6613  0.4202
 1122SOL    HW2 3959  -0.022   4.778   0.258 -0.1561  0.5943  0.1944
 1123SOL     OW 3960   6.812   4.330   2.405 -0.4141 -0.4241 -0.2792
 1123SOL    HW1 3961   6.733   4.314   2.456 -0.4689 -0.9516 -0.5187
 1123SOL    HW2 3962   6.789   4.403   2.348 -0.3706  0.1346  0.3997
 1124SOL     OW 3963   3.174   4.088   2.692 -0.4949  0.2491 -0.0267
 1124SOL    HW1 3964   3.202   4.141   2.766  0.4767  0.6508 -0.6621
 1124SOL    HW2 3965   3.080   4.105   2.684 -0.5968  0.2367  1.0710
 1125SOL     OW 3966   6.922   4.487   1.478  0.1279  0.8974 -0.0617
 1125SOL    HW1 3967   6.954   4.556   1.536 -0.0823  1.3828 -0.5151
 1125SOL    HW2 3968   6.829   4.477   1.502  0.3600  0.1776  0.5792
 1126SOL     OW 3969   7.084   4.030   0.139 -0.4185 -0.2389  0.8889
 1126SOL    HW1 3970   7.141   4.015   0.214 -0.8811  1.7962  1.7229
 1126SOL    HW2 3971   7.124   4.104   0.093 -0.9562 -0.4991 -0.0204
 1127SOL     OW 3972   0.461   4.316   3.141  0.0404  0.4526  0.3829
 1127SOL    HW1 3973   0.423   4.306   3.054 -1.3179 -1.2951  1.1002
 1127SOL    HW2 3974   0.468   4.411   3.153  2.5918  0.7820 -2.5079
 1128SOL     OW 3975   7.138   4.781   2.305 -0.3352  0.3585  0.2821
 1128SOL    HW1 3976   7.108   4.869   2.281 -2.3207  0.2521  2.0307
 1128SOL    HW2 3977   7.072   4.723   2.267 -2.3337  0.0760  3.7653
 1129SOL     OW 3978   2.222   3.874   0.129 -0.1683  0.1944 -0.3824
 1129SOL    HW1 3979   2.208   3.812   0.201 -0.3491 -4.0685 -3.6187
 1129SOL    HW2 3980   2.138   3.919   0.119 -0.4041  0.2254  1.4695
 1130SOL     OW 3981   6.817   4.877   2.411 -0.6493 -0.1205  0.0471
 1130SOL    HW1 3982   6.727   4.876   2.378 -0.3528 -0.6358 -0.7798
 1130SOL    HW2 3983   6.859   4.949   2.364 -0.2023 -0.9080 -0.7934
 1131SOL     OW 3984   0.725   4.896   1.550  0.3725  0.0232 -0.2639
 1131SOL    HW1 3985   0.686   4.982   1.532 -0.2515 -0.1094  0.3979
 1131SOL    HW2 3986   0.671   4.860   1.621  1.8077 -0.1099  0.7917
 1132SOL     OW 3987   0.599   5.205   0.254  0.0308  0.4741 -0.0809
 1132SOL    HW1 3988   0.515   5.248   0.239 -0.2792  0.4593  1.4160
 1132SOL    HW2 3989   0.585   5.152   0.333  1.4149  0.4107  0.1452
 1133SOL     OW 3990   1.099   4.225   3.242 -0.4532 -0.0604  0.1136
 1133SOL    HW1 3991   1.049   4.266   3.171  1.4040  0.5682 -0.9092
 1133SOL    HW2 3992   1.061   4.138   3.251 -0.7781 -0.1460 -1.6516
 1134SOL     OW 3993   0.245   1.882   2.544 -0.9273 -0.0165  0.1591
 1134SOL    HW1 3994   0.295   1.829   2.482 -0.2976  1.3668 -0.5321
 1134SOL    HW2 3995   0.271   1.848   2.630 -0.5774 -0.8546 -0.2591
 1135SOL     OW 3996   3.159   4.399   3.083 -0.3395 -0.3687 -0.0497
 1135SOL    HW1 3997   3.250   4.426   3.067  0.2813 -0.6592  2.5058
 1135SOL    HW2 3998   3.150   4.400   3.178 -3.2415  0.2382 -0.2345
 1136SOL     OW 3999   7.354   3.292   1.424 -0.3889 -0.0720 -0.0570
 1136SOL    HW1 4000   7.373   3.256   1.338 -2.7383  0.5637 -0.9256
 1136SOL    HW2 4001   7.390   3.381   1.421  0.1731 -0.2966 -0.0971
 1137SOL     OW 4002   1.079   4.523   3.050  0.2496  0.0216  0.0182
 1137SOL    HW1 4003   1.014   4.544   3.116  0.2628  1.0206 -0.2636
 1137SOL    HW2 4004   1.159   4.505   3.099  0.0653 -0.0098  0.3062
 1138SOL     OW 4005   3.014   4.135   3.462 -0.2725 -0.1471 -0.2418
 1138SOL    HW1 4006   2.983   4.144   3.371 -0.5923 -0.3875 -0.1587
 1138SOL    HW2 4007   2.995   4.221   3.502  3.1069  1.2660 -1.3382
 1139SOL     OW 4008   1.388   5.310   3.007 -0.1201 -0.2583 -0.1528
 1139SOL    HW1 4009   1.477   5.342   2.990 -0.2808 -0.7764 -2.2772
 1139SOL    HW2 4010   1.370   5.338   3.097  1.1266  2.3277 -0.5965
 1140SOL     OW 4011   1.364   4.835   2.115 -0.3925 -0.4541  0.0326
 1140SOL    HW1 4012   1.407   4.896   2.055 -1.4944  0.4095  0.0975
 1140SOL    HW2 4013   1.344   4.758   2.061  1.5462 -1.0402  0.0984
 1141SOL     OW 4014   1.207   4.571   3.454 -0.1630 -0.0144  0.1166
 1141SOL    HW1 4015   1.198   4.658   3.494 -0.8891 -0.6883  1.4648
 1141SOL    HW2 4016   1.238   4.515   3.525 -1.9659 -1.3516 -0.1001
 1142SOL     OW 4017   3.275   0.374   2.996  0.3576 -0.3302 -0.1692
 1142SOL    HW1 4018   3.358   0.409   2.964  1.0699 -0.5326  1.3979
 1142SOL    HW2 4019   3.246   0.437   3.063 -1.0660  0.0516 -1.0886
 1143SOL     OW 4020   1.239   5.186   1.365 -0.3295  0.7056 -0.1443
 1143SOL    HW1 4021   1.155   5.159   1.328 -0.4357 -0.6860  1.0088
 1143SOL    HW2 4022   1.280   5.239   1.297 -1.1112 -0.5547 -1.6612
 1144SOL     OW 4023   1.249   1.007   1.024 -0.1013  0.2443 -0.6228
 1144SOL    HW1 4024   1.327   1.019   1.079 -0.3103 -1.1235  0.0231
 1144SOL    HW2 4025   1.283   0.966   0.944 -0.1198 -0.1587 -0.4276
 1145SOL     OW 4026   1.245   3.552   3.041  0.0119 -0.0826 -0.0863
 1145SOL    HW1 4027   1.220   3.482   2.981 -0.0584  0.1604 -0.3482
 1145SOL    HW2 4028   1.211   3.525   3.126  1.0118 -0.9218  0.0528
 1146SOL     OW 4029   0.709   4.459   2.569  0.3374  0.1506 -0.1893
 1146SOL    HW1 4030   0.660   4.465   2.488 -0.8009 -1.2533  0.3518
 1146SOL    HW2 4031   0.715   4.366   2.587 -0.5567  0.4430  1.9706
 1147SOL     OW 4032   2.686   5.028   3.364  0.2775  0.0523  0.3409
 1147SOL    HW1 4033   2.634   5.004   3.441  0.6875 -0.5700  0.4334
 1147SOL    HW2 4034   2.712   4.944   3.326  0.7077  0.3588 -0.0478
 1148SOL     OW 4035   1.814   4.769   3.236  0.1246  0.4889 -0.5201
 1148SOL    HW1 4036   1.885   4.769   3.172  0.5932 -0.2579 -0.0132
 1148SOL    HW2 4037   1.736   4.750   3.185  0.4244  0.3796 -0.9442
 1149SOL     OW 4038   1.585   4.879   2.324 -0.9937 -0.6454  0.5610
 1149SOL    HW1 4039   1.531   4.932   2.382 -2.0240  1.2975 -1.9799
 1149SOL    HW2 4040   1.533   4.870   2.244  1.4400 -0.8086 -1.1096
 1150SOL     OW 4041   0.987   3.089   3.231  0.2357 -0.3103 -0.4645
 1150SOL    HW1 4042   0.898   3.124   3.237  1.0597  1.7059  1.8841
 1150SOL    HW2 4043   1.032   3.149   3.172  0.1729 -1.1031 -1.3418
 1151SOL     OW 4044   1.531   3.709   3.376  0.2962 -0.4887 -0.1901
 1151SOL    HW1 4045   1.447   3.689   3.418  0.3498  0.3111  0.3426
 1151SOL    HW2 4046   1.535   3.651   3.301 -0.0365 -1.6290  0.6434
 1152SOL     OW 4047   2.206   5.107   2.264 -0.5780 -0.4316  0.4136
 1152SOL    HW1 4048   2.157   5.025   2.259  0.3337 -1.0203  0.8034
 1152SOL    HW2 4049   2.297   5.079   2.277 -0.2476  0.6438  0.4745
 1153SOL     OW 4050   1.363   5.077   2.817  0.4161 -0.6634  0.5312
 1153SOL    HW1 4051   1.374   5.020   2.894  0.7186  0.5584  1.4139
 1153SOL    HW2 4052   1.325   5.157   2.852 -0.4113 -0.4616 -0.7654
 1154SOL     OW 4053   0.405   3.923   1.038 -0.1713  0.4142 -0.0452
 1154SOL    HW1 4054   0.455   3.961   1.111 -0.4996 -0.3800  0.6198
 1154SOL    HW2 4055   0.346   3.992   1.010  0.4850  0.9768 -0.0574
 1155SOL     OW 4056   0.912   3.918   2.902  0.0481  0.0777 -0.2033
 1155SOL    HW1 4057   0.998   3.877   2.912  0.5571  0.5818 -2.0631
 1155SOL    HW2 4058   0.926   3.986   2.837 -1.4728  1.1321  0.5087
 1156SOL     OW 4059   0.610   4.278   2.778 -0.4182  0.1613 -0.1903
 1156SOL    HW1 4060   0.700   4.289   2.809  0.4619 -0.1202 -2.4685
 1156SOL    HW2 4061   0.619   4.245   2.688 -2.7935  0.9751 -0.8080
 1157SOL     OW 4062   6.758   4.067   1.406  0.0594 -0.1113  0.1270
 1157SOL    HW1 4063   6.741   3.975   1.426 -0.3982  0.1086  0.7786
 1157SOL    HW2 4064   6.769   4.108   1.492  0.2709  0.4454 -0.1613
 1158SOL     OW 4065   1.639   5.362   2.910 -0.2380  0.0816 -0.3243
 1158SOL    HW1 4066   1.682   5.276   2.904 -0.2026 -0.0912  1.8841
 1158SOL    HW2 4067   1.705   5.424   2.878  1.5573 -0.2508  2.3830
 1159SOL     OW 4068   2.659   5.362   2.571  0.1348 -0.4943  0.2651
 1159SOL    HW1 4069   2.722   5.322   2.512  1.0210 -0.5547  1.2343
 1159SOL    HW2 4070   2.632   5.443   2.527  0.5558 -0.6866 -0.3504
 1160SOL     OW 4071   0.774   0.228   3.304  0.0476 -0.1492 -0.3671
 1160SOL    HW1 4072   0.827   0.277   3.242 -1.2281  0.7823 -0.7643
 1160SOL    HW2 4073   0.772   0.139   3.270 -0.9194  0.4168 -1.8856
 1161SOL     OW 4074   1.648   1.137   2.273  0.0972 -0.4513 -0.3263
 1161SOL    HW1 4075   1.648   1.148   2.368  1.3765  1.3374 -0.4942
 1161SOL    HW2 4076   1.716   1.072   2.256 -1.0984 -1.8736  0.0200
 1162SOL     OW 4077   2.866   2.256   0.435  0.3015  0.4378  0.6319
 1162SOL    HW1 4078   2.924   2.248   0.359  1.7461  0.4700  1.7017
 1162SOL    HW2 4079   2.906   2.201   0.502 -2.3682 -1.7516  0.6063
 1163SOL     OW 4080   2.737   0.754   2.229  0.0939  0.2262 -0.3970
 1163SOL    HW1 4081   2.707   0.666   2.208  0.5484 -0.1873  0.6480
 1163SOL    HW2 4082   2.705   0.771   2.317  0.9737  0.6608 -0.1412
 1164SOL     OW 4083   4.415   0.783   1.130  0.0972  0.7438 -0.2727
 1164SOL    HW1 4084   4.366   0.738   1.199 -0.4049  2.0473  0.2411
 1164SOL    HW2 4085   4.444   0.865   1.170  1.8107  0.4971 -0.9057
 1165SOL     OW 4086   2.559   0.991   0.793 -0.0964 -0.3876 -0.8370
 1165SOL    HW1 4087   2.589   1.068   0.842 -0.0147 -0.2609 -1.0847
 1165SOL    HW2 4088   2.543   1.024   0.704 -1.0608 -0.4342 -0.6842
 1166SOL     OW 4089   2.683   0.864   1.215  0.5806 -0.4184 -0.3090
 1166SOL    HW1 4090   2.612   0.927   1.229  0.6946 -0.5093  0.7366
 1166SOL    HW2 4091   2.736   0.903   1.145  0.7173  0.7090  0.4017
 1167SOL     OW 4092   2.092   0.281   0.241  0.0840 -0.0148  0.1284
 1167SOL    HW1 4093   2.152   0.208   0.224  0.7432  0.5770 -0.1162
 1167SOL    HW2 4094   2.102   0.299   0.335  0.0558 -0.1107  0.1503
 1168SOL     OW 4095   2.275   2.066   1.780 -0.3682  0.0362  0.2418
 1168SOL    HW1 4096   2.351   2.124   1.779 -0.4382  0.1326 -0.5575
 1168SOL    HW2 4097   2.219   2.101   1.849 -0.7606  1.4155 -0.7367
 1169SOL     OW 4098   3.279   0.569   2.446 -0.4588 -0.2806 -0.2908
 1169SOL    HW1 4099   3.365   0.546   2.481 -0.4190 -1.5250 -1.1223
 1169SOL    HW2 4100   3.292   0.654   2.405  0.6772 -0.9213 -1.3284
 1170SOL     OW 4101   3.134   5.348   2.408  0.0190 -0.3528  0.0585
 1170SOL    HW1 4102   3.092   5.290   2.472  1.4365 -3.0068 -1.2344
 1170SOL    HW2 4103   3.227   5.336   2.423  0.3954 -1.1107 -2.4492
 1171SOL     OW 4104   3.563   0.961   0.640 -0.2647  0.0449 -0.1497
 1171SOL    HW1 4105   3.542   1.046   0.600 -1.2820  0.3412  0.9702
 1171SOL    HW2 4106   3.533   0.897   0.577  0.7757  0.4873 -1.1467
 1172SOL     OW 4107   1.273   2.069   0.949 -0.0975 -0.6559  0.6005
 1172SOL    HW1 4108   1.288   2.108   1.036  1.6109 -2.3094  1.1225
 1172SOL    HW2 4109   1.271   1.975   0.966 -0.8488 -0.9629 -1.0448
 1173SOL     OW 4110   3.215   1.103   1.987  0.4420 -0.1241  0.5126
 1173SOL    HW1 4111   3.152   1.095   2.059 -0.2732  0.8581  0.0236
 1173SOL    HW2 4112   3.213   1.018   1.944 -2.4097  0.5588 -0.9502
 1174SOL     OW 4113   2.070   1.895   0.921  0.6495 -0.5453 -0.1230
 1174SOL    HW1 4114   1.985   1.852   0.916  0.5839 -0.6228  1.1938
 1174SOL    HW2 4115   2.050   1.988   0.923  0.4466 -0.5887  1.8447
 1175SOL     OW 4116   1.900   1.301   1.926  0.1308 -0.2625 -0.0213
 1175SOL    HW1 4117   1.981   1.291   1.976 -0.0826 -1.2612  0.1433
 1175SOL    HW2 4118   1.928   1.338   1.842  0.5968  0.5807  0.4977
 1176SOL     OW 4119   1.834   0.240   2.295  0.1761  0.0856 -0.2521
 1176SOL    HW1 4120   1.780   0.230   2.216  0.0689 -1.4688 -0.0109
 1176SOL    HW2 4121   1.786   0.304   2.348 -1.6505 -1.4543  0.0837
 1177SOL     OW 4122   1.853   1.106   1.192  0.0681  0.2996  0.4015
 1177SOL    HW1 4123   1.807   1.028   1.221 -0.0522 -0.4123 -1.5361
 1177SOL    HW2 4124   1.901   1.136   1.269  0.6556 -2.0896  1.0534
 1178SOL     OW 4125   3.839   0.395   3.308  0.7680  0.5334  0.0599
 1178SOL    HW1 4126   3.864   0.406   3.216  0.1809  0.5794 -0.0972
 1178SOL    HW2 4127   3.748   0.366   3.304  1.3565 -1.4958  0.5568
 1179SOL     OW 4128   2.425   5.136   1.504 -0.0608 -0.6004 -0.4297
 1179SOL    HW1 4129   2.388   5.149   1.416  0.3016 -1.2177 -0.6844
 1179SOL    HW2 4130   2.503   5.193   1.505 -0.0048 -0.6722 -0.5523
 1180SOL     OW 4131   2.376   2.126   3.020  0.3355  0.6931 -0.5567
 1180SOL    HW1 4132   2.325   2.136   3.100 -0.5894  1.9154 -1.2640
 1180SOL    HW2 4133   2.313   2.099   2.954  1.1982 -0.9132 -0.7666
 1181SOL     OW 4134   1.914   1.549   2.679 -0.1761 -0.4332 -0.2952
 1181SOL    HW1 4135   1.998   1.522   2.715  0.0876  0.3965 -0.2621
 1181SOL    HW2 4136   1.934   1.575   2.589 -0.4384 -0.4497 -0.3597
 1182SOL     OW 4137   2.923   0.798   2.482 -0.5517 -0.0272 -0.3891
 1182SOL    HW1 4138   2.926   0.886   2.447 -1.6403 -0.2837 -1.1765
 1182SOL    HW2 4139   2.966   0.744   2.416 -1.5100 -0.3307 -0.7915
 1183SOL     OW 4140   3.506   0.386   0.703 -0.1664 -0.0921  0.5505
 1183SOL    HW1 4141   3.550   0.377   0.619 -1.8265  1.1536 -0.5004
 1183SOL    HW2 4142   3.449   0.462   0.693  0.2924  0.6927  3.1283
 1184SOL     OW 4143   2.065   5.371   1.696 -0.5433 -0.1557  0.0194
 1184SOL    HW1 4144   2.025   5.431   1.634 -2.7008 -0.8759  0.6239
 1184SOL    HW2 4145   2.151   5.409   1.715 -1.0187  1.6007 -1.1792
 1185SOL     OW 4146   0.705   1.278   0.160  0.2549 -0.0162  0.1337
 1185SOL    HW1 4147   0.618   1.260   0.196  0.4414  1.3119  1.3826
 1185SOL    HW2 4148   0.697   1.366   0.121  0.9701  0.0119  0.0288
 1186SOL     OW 4149   1.493   1.030   1.174  0.9021  0.0123 -0.1603
 1186SOL    HW1 4150   1.577   0.994   1.205  0.4283 -0.8941  0.1155
 1186SOL    HW2 4151   1.462   1.084   1.247  0.5675 -0.8070  0.3157
 1187SOL     OW 4152   2.792   4.737   2.154  0.5566 -0.3590 -0.3510
 1187SOL    HW1 4153   2.870   4.773   2.112 -0.2820  1.7203 -0.2381
 1187SOL    HW2 4154   2.727   4.730   2.084 -0.2575  1.3498  0.1861
 1188SOL     OW 4155   1.900   1.018   2.216  0.1868  0.3074 -0.0376
 1188SOL    HW1 4156   1.923   1.110   2.228  0.0145  0.2929  0.3932
 1188SOL    HW2 4157   1.944   0.994   2.134  0.2269  0.7717 -0.1587
 1189SOL     OW 4158   3.074   0.961   0.153 -0.0472 -0.4110 -0.0278
 1189SOL    HW1 4159   3.061   1.047   0.114 -1.4943 -0.4011  0.4164
 1189SOL    HW2 4160   3.152   0.970   0.207  0.8347  0.1180 -1.3549
 1190SOL     OW 4161   2.556   1.358   1.524  0.6816  0.0754 -0.2376
 1190SOL    HW1 4162   2.583   1.268   1.545 -2.6683 -0.7887  1.0226
 1190SOL    HW2 4163   2.492   1.348   1.454 -0.9444  1.2318  1.0070
 1191SOL     OW 4164   2.829   4.889   1.831 -0.0157  0.2968  0.2242
 1191SOL    HW1 4165   2.817   4.934   1.915 -0.5747 -0.0665  0.3511
 1191SOL    HW2 4166   2.883   4.947   1.779  0.5999  0.3865  0.9565
 1192SOL     OW 4167   3.299   1.069   0.926 -0.2415  0.1342  0.0568
 1192SOL    HW1 4168   3.338   1.141   0.876  1.7722 -1.3887 -0.7051
 1192SOL    HW2 4169   3.374   1.021   0.961 -1.5645  0.0503  3.0314
 1193SOL     OW 4170   2.866   2.040   3.417  0.0027  0.2510  0.6949
 1193SOL    HW1 4171   2.776   2.008   3.415  0.4058 -0.9814  1.1546
 1193SOL    HW2 4172   2.919   1.962   3.400  0.9429  1.2072 -0.9020
 1194SOL     OW 4173   2.417   4.465   1.041 -0.1051 -0.6313  0.1812
 1194SOL    HW1 4174   2.387   4.528   0.976  1.3720  1.5182  1.4545
 1194SOL    HW2 4175   2.348   4.463   1.107  0.4217  0.7362  0.8008
 1195SOL     OW 4176   2.081   0.925   2.045 -0.7989 -0.2022 -0.0514
 1195SOL    HW1 4177   2.172   0.950   2.058 -1.0558  0.0849  1.3761
 1195SOL    HW2 4178   2.066   0.935   1.951  0.2114  1.2603 -0.0841
 1196SOL     OW 4179   2.394   0.724   2.999 -0.0049  0.3522  0.2475
 1196SOL    HW1 4180   2.346   0.689   3.074 -0.5610 -0.5417 -0.4984
 1196SOL    HW2 4181   2.478   0.754   3.036  0.9646 -2.7169  0.8285
 1197SOL     OW 4182   1.368   0.535   2.458 -0.6893 -0.4885 -0.1137
 1197SOL    HW1 4183   1.371   0.631   2.465  1.3571 -0.5444  0.6092
 1197SOL    HW2 4184   1.378   0.518   2.364  1.7232  0.0327 -0.0202
 1198SOL     OW 4185   2.737   0.216   0.392  0.7271 -0.2627 -0.4338
 1198SOL    HW1 4186   2.801   0.288   0.388  1.0831 -0.5358  0.1477
 1198SOL    HW2 4187   2.753   0.165   0.313 -0.9679  1.4601 -2.0092
 1199SOL     OW 4188   3.725   1.649   2.287 -0.0206 -0.0559  0.2725
 1199SOL    HW1 4189   3.740   1.555   2.280  0.8249  0.1634 -1.3386
 1199SOL    HW2 4190   3.637   1.663   2.250 -0.5087 -0.2926  1.3138
 1200SOL     OW 4191   2.737   5.320   2.161 -0.2016 -0.0383  0.2994
 1200SOL    HW1 4192   2.758   5.274   2.242 -0.9915 -0.3853  0.3124
 1200SOL    HW2 4193   2.708   5.407   2.189  1.9073  0.7294  0.2418
 1201SOL     OW 4194   2.916   1.095   0.374 -0.1338  0.7445 -0.1748
 1201SOL    HW1 4195   2.949   1.005   0.371 -0.4721  0.5730  0.9600
 1201SOL    HW2 4196   2.866   1.104   0.293 -0.0025 -0.0502 -0.3548
 1202SOL     OW 4197   1.178   5.230   1.730  0.2973 -0.0674  0.4801
 1202SOL    HW1 4198   1.249   5.226   1.666  0.4017  0.3936  0.5683
 1202SOL    HW2 4199   1.207   5.295   1.794 -0.9268  1.3694 -0.3681
 1203SOL     OW 4200   1.869   1.918   1.172  0.0755 -0.2453  0.1256
 1203SOL    HW1 4201   1.938   1.852   1.171  0.3981  0.0736  0.6849
 1203SOL    HW2 4202   1.883   1.965   1.254 -0.5242  0.1225  0.0195
 1204SOL     OW 4203   2.142   1.106   3.070  0.4941  0.4313 -0.0109
 1204SOL    HW1 4204   2.076   1.045   3.103 -0.2181  0.4754 -1.2847
 1204SOL    HW2 4205   2.123   1.112   2.976  0.9032  2.1829 -0.0030
 1205SOL     OW 4206   3.277   1.561   1.936  0.6116 -0.0279 -0.8315
 1205SOL    HW1 4207   3.318   1.604   1.861  0.6767  1.2823 -0.0737
 1205SOL    HW2 4208   3.198   1.611   1.953  0.2897 -0.6746 -0.3850
 1206SOL     OW 4209   4.584   1.612   0.259 -0.2709 -0.1529  0.5796
 1206SOL    HW1 4210   4.643   1.648   0.326 -0.1873  0.1614  0.3395
 1206SOL    HW2 4211   4.520   1.682   0.244  0.9310  0.6635 -1.1967
 1207SOL     OW 4212   1.585   0.354   1.123  0.2935 -0.2641 -0.3951
 1207SOL    HW1 4213   1.597   0.269   1.166  3.6121 -0.6672 -1.7430
 1207SOL    HW2 4214   1.579   0.417   1.195  0.0334 -1.4124  0.6261
 1208SOL     OW 4215   2.764   0.675   0.780 -0.3032  0.0942 -0.3514
 1208SOL    HW1 4216   2.669   0.677   0.789 -0.1635  1.4350  1.6770
 1208SOL    HW2 4217   2.795   0.631   0.860  0.7873 -0.6588 -1.1518
 1209SOL     OW 4218   3.382   1.519   0.840 -0.2924 -0.4029 -0.1404
 1209SOL    HW1 4219   3.302   1.471   0.863  0.0198 -1.2388 -0.7337
 1209SOL    HW2 4220   3.428   1.461   0.780  1.4311 -0.5561  1.2420
 1210SOL     OW 4221   4.404   1.026   0.743  0.0871 -0.0973  0.0998
 1210SOL    HW1 4222   4.482   1.007   0.796 -0.5454 -0.6803  0.8384
 1210SOL    HW2 4223   4.388   0.946   0.694  0.2911  0.2243 -0.5028
 1211SOL     OW 4224   1.048   0.366   3.216  1.0341  0.4376  0.0020
 1211SOL    HW1 4225   1.048   0.338   3.308  0.0726  0.7368  0.1137
 1211SOL    HW2 4226   1.031   0.285   3.167 -0.1179  0.5206  0.2172
 1212SOL     OW 4227   2.708   1.023   2.432  0.3464 -0.1972  0.3328
 1212SOL    HW1 4228   2.646   1.028   2.505  0.1605 -0.3423  0.1870
 1212SOL    HW2 4229   2.656   1.049   2.356  0.3907 -0.5832  0.1671
 1213SOL     OW 4230   3.031   2.039   2.763 -0.3702  0.4804 -0.7766
 1213SOL    HW1 4231   2.969   2.111   2.750  0.6574  1.7751  1.0247
 1213SOL    HW2 4232   3.117   2.082   2.764  0.5826 -1.1953 -2.7262
 1214SOL     OW 4233   2.228   1.649   0.658 -0.0664 -0.0171 -0.3538
 1214SOL    HW1 4234   2.297   1.714   0.670 -0.3259  0.2649 -0.3870
 1214SOL    HW2 4235   2.160   1.695   0.609 -0.8095  0.0789  0.7438
 1215SOL     OW 4236   1.337   0.014   2.164  0.0122  0.2586 -0.3413
 1215SOL    HW1 4237   1.325   0.059   2.247  1.6817 -1.3903  0.8760
 1215SOL    HW2 4238   1.360  -0.076   2.188 -0.9218 -0.6713 -2.6252
 1216SOL     OW 4239   4.492   0.394   2.897 -0.1223  0.1460  0.0809
 1216SOL    HW1 4240   4.479   0.481   2.934 -1.3470  0.9076 -1.9711
 1216SOL    HW2 4241   4.586   0.377   2.908  0.1678  1.7934  0.3785
 1217SOL     OW 4242   1.789   0.606   0.970 -0.3951  0.1334  0.5338
 1217SOL    HW1 4243   1.745   0.668   0.912 -0.1151 -0.4434 -0.3209
 1217SOL    HW2 4244   1.743   0.523   0.956 -0.4422  0.0313  1.2815
 1218SOL     OW 4245   2.894   0.553   1.022 -0.0898 -0.1739  0.8430
 1218SOL    HW1 4246   2.983   0.586   1.031 -0.3297  1.1965 -1.1620
 1218SOL    HW2 4247   2.863   0.542   1.112  1.4386  1.1684  1.5847
 1219SOL     OW 4248   2.151   2.095   0.632  0.1818  0.2039 -0.2023
 1219SOL    HW1 4249   2.208   2.065   0.562  0.8822  2.1639 -0.5401
 1219SOL    HW2 4250   2.063   2.088   0.596  0.4306 -0.1685 -0.7492
 1220SOL     OW 4251   1.755   1.531   0.439 -0.2210  0.0907 -0.4277
 1220SOL    HW1 4252   1.683   1.571   0.487 -0.7048 -0.2752 -0.8334
 1220SOL    HW2 4253   1.725   1.443   0.419  1.2064 -0.8281  1.2670
 1221SOL     OW 4254   3.025   1.117   0.929  0.4378  1.0837 -0.1534
 1221SOL    HW1 4255   3.037   1.207   0.900  0.1772  1.1078 -0.1885
 1221SOL    HW2 4256   3.113   1.078   0.925  0.5326  1.3057 -0.2333
 1222SOL     OW 4257   4.033   0.065   3.197  0.1556  0.5240 -0.1187
 1222SOL    HW1 4258   3.947   0.032   3.172 -0.1901  1.0137  0.3852
 1222SOL    HW2 4259   4.041   0.149   3.152  0.3170  0.5368 -0.0669
 1223SOL     OW 4260   1.773   3.723   2.960  0.0203 -0.3698  0.0956
 1223SOL    HW1 4261   1.802   3.766   2.880  1.3303 -0.5384  0.4512
 1223SOL    HW2 4262   1.799   3.782   3.031 -0.3866 -0.6071  0.4533
 1224SOL     OW 4263   2.347   5.316   1.957 -0.2681  0.4363  0.1660
 1224SOL    HW1 4264   2.390   5.402   1.956  2.1050 -0.6705  0.0192
 1224SOL    HW2 4265   2.387   5.271   2.031  0.3204 -1.3589 -1.1815
 1225SOL     OW 4266   2.817   0.985   1.019  0.3150  0.1095  0.5059
 1225SOL    HW1 4267   2.773   1.064   0.988  1.3305  0.0135 -1.3634
 1225SOL    HW2 4268   2.909   0.999   0.996  0.5513 -1.4937  0.3809
 1226SOL     OW 4269   1.141   0.273   0.938  0.6588  0.1290  0.4438
 1226SOL    HW1 4270   1.218   0.291   0.884  1.3691 -0.9659  1.0502
 1226SOL    HW2 4271   1.084   0.220   0.881  0.7762  0.1581  0.2972
 1227SOL     OW 4272   3.465   4.842   1.549  0.2125 -0.0458 -0.4677
 1227SOL    HW1 4273   3.456   4.768   1.489  1.3279 -0.4085 -0.2044
 1227SOL    HW2 4274   3.374   4.869   1.567 -0.1773 -0.8164 -1.2077
 1228SOL     OW 4275   3.138   5.241   3.512 -0.1287  0.5457 -0.1642
 1228SOL    HW1 4276   3.199   5.174   3.479 -0.1804  0.5560 -0.2822
 1228SOL    HW2 4277   3.083   5.262   3.436 -1.2413 -0.5217  0.3252
 1229SOL     OW 4278   4.000   0.642   1.823 -0.1368  0.1225 -0.2443
 1229SOL    HW1 4279   4.060   0.578   1.784  0.9521  1.2587 -0.5134
 1229SOL    HW2 4280   3.995   0.712   1.757 -1.7607  0.0620 -0.2088
 1230SOL     OW 4281   1.776   0.380   0.259 -0.1095  0.1755  0.3239
 1230SOL    HW1 4282   1.832   0.353   0.187 -0.1416 -0.2125  0.4413
 1230SOL    HW2 4283   1.836   0.393   0.333 -0.1713 -0.2453  0.4512
 1231SOL     OW 4284   3.116   5.369   0.407  0.7089 -0.6448 -0.0460
 1231SOL    HW1 4285   3.150   5.306   0.470 -0.5049 -0.8597  0.4243
 1231SOL    HW2 4286   3.066   5.432   0.460  0.1418 -0.5067 -0.7330
 1232SOL     OW 4287   2.678   1.110   1.591  0.3576  0.0777 -0.6269
 1232SOL    HW1 4288   2.685   1.118   1.686 -0.3514  0.4711 -0.5996
 1232SOL    HW2 4289   2.725   1.030   1.569  1.0469  0.3060 -0.0141
 1233SOL     OW 4290   3.268   1.603   0.347 -0.2251 -0.3748 -0.3352
 1233SOL    HW1 4291   3.286   1.652   0.267  0.7165 -1.2929 -0.7199
 1233SOL    HW2 4292   3.354   1.570   0.374 -0.6516 -0.7405  0.6158
 1234SOL     OW 4293   2.218   1.141   1.062  0.0717 -0.1452  0.0072
 1234SOL    HW1 4294   2.233   1.053   1.026  0.8848  0.2156 -0.5569
 1234SOL    HW2 4295   2.133   1.167   1.026  0.2683 -0.3221 -0.6020
 1235SOL     OW 4296   2.922   0.762   0.341 -0.1109 -0.0767 -0.0731
 1235SOL    HW1 4297   2.923   0.800   0.253  0.3143  1.2468  0.4699
 1235SOL    HW2 4298   2.933   0.668   0.327 -1.4364 -0.0571 -1.4968
 1236SOL     OW 4299   2.411   1.043   3.184 -0.1889  0.3416  0.2563
 1236SOL    HW1 4300   2.429   1.128   3.224  2.0221 -0.7967  1.9325
 1236SOL    HW2 4301   2.348   1.062   3.115 -0.5129  3.1732  1.1826
 1237SOL     OW 4302   1.690   0.182   1.760 -0.5903  0.4121  0.4055
 1237SOL    HW1 4303   1.660   0.269   1.787 -1.5030 -0.2122  1.5129
 1237SOL    HW2 4304   1.745   0.152   1.833  2.1242  1.1574 -1.1820
 1238SOL     OW 4305   2.823   5.430   2.791 -0.3223 -0.2583  0.2742
 1238SOL    HW1 4306   2.774   5.393   2.718 -0.6437  1.7499 -0.5795
 1238SOL    HW2 4307   2.869   5.355   2.830  0.8261 -1.2149 -2.6866
 1239SOL     OW 4308   2.280   0.457   1.137 -0.0467 -0.2919  0.2119
 1239SOL    HW1 4309   2.188   0.475   1.154  0.0361  1.2289 -0.8066
 1239SOL    HW2 4310   2.307   0.525   1.075  0.8363 -2.7474 -2.3117
 1240SOL     OW 4311   2.136   0.151   1.085  0.0788 -0.2525 -0.1900
 1240SOL    HW1 4312   2.186   0.214   1.032 -0.1117 -1.0239 -1.3081
 1240SOL    HW2 4313   2.188   0.141   1.165  1.4787 -0.6545 -1.1077
 1241SOL     OW 4314   2.054   0.402   1.864  0.4412 -0.4212 -0.8256
 1241SOL    HW1 4315   2.069   0.318   1.906 -1.0656 -1.8684 -2.9902
 1241SOL    HW2 4316   2.136   0.450   1.876  1.5048 -2.3600  0.0620
 1242SOL     OW 4317   2.971   5.257   1.501 -1.0027 -0.0257  0.5426
 1242SOL    HW1 4318   2.981   5.295   1.588 -0.4670  1.0009  0.0618
 1242SOL    HW2 4319   2.976   5.163   1.514  0.0346  0.1498  1.5080
 1243SOL     OW 4320   2.795   0.506   0.494 -0.1397 -0.1265 -0.0090
 1243SOL    HW1 4321   2.832   0.560   0.565  0.1097 -1.3898  0.8526
 1243SOL    HW2 4322   2.869   0.492   0.434  0.8247 -2.4792  1.6080
 1244SOL     OW 4323   1.534   1.070   3.517  0.0435  0.3412 -0.3124
 1244SOL    HW1 4324   1.607   1.018   3.551 -0.9582 -1.2783 -0.5249
 1244SOL    HW2 4325   1.556   1.160   3.541  1.0125 -0.3474  1.6666
 1245SOL     OW 4326   2.520   1.035   0.519 -0.3976 -0.5225  0.2238
 1245SOL    HW1 4327   2.471   1.036   0.437 -1.2176 -2.5953  0.6185
 1245SOL    HW2 4328   2.603   0.992   0.496  0.4183  1.0778  0.0125
 1246SOL     OW 4329   3.280   1.168   0.015  0.4916  0.1874  0.3289
 1246SOL    HW1 4330   3.194   1.210   0.020 -2.0693 -4.3126 -0.6140
 1246SOL    HW2 4331   3.315   1.195  -0.070 -0.2481  1.5782  0.4354
 1247SOL     OW 4332   2.258   5.132   0.465 -0.2581 -0.7078 -0.2271
 1247SOL    HW1 4333   2.227   5.214   0.505 -1.4054 -2.5523  3.0538
 1247SOL    HW2 4334   2.332   5.158   0.411  0.4236  2.3186  1.9166
 1248SOL     OW 4335   2.956   1.131   1.477  0.0896 -0.0138  0.1425
 1248SOL    HW1 4336   2.861   1.140   1.472  0.1823  0.2067 -1.5527
 1248SOL    HW2 4337   2.990   1.218   1.458  0.6424  0.2473  2.0791
 1249SOL     OW 4338   5.004   2.231   1.743 -0.3574 -0.4577  0.3731
 1249SOL    HW1 4339   4.926   2.239   1.797 -1.3941 -1.0599 -0.9738
 1249SOL    HW2 4340   4.992   2.297   1.674  0.4243 -0.4171  0.2641
 1250SOL     OW 4341   2.854   0.488   3.129 -0.3463 -0.0949 -0.0701
 1250SOL    HW1 4342   2.769   0.469   3.089  1.0862 -0.1940 -3.3826
 1250SOL    HW2 4343   2.862   0.425   3.200 -2.4778 -0.9476 -0.5092
 1251SOL     OW 4344   1.988   1.112   1.450  0.1616 -0.0470  0.4526
 1251SOL    HW1 4345   2.076   1.147   1.466  0.4612  0.2449 -1.4995
 1251SOL    HW2 4346   1.995   1.020   1.474  0.7602  0.1475  1.0784
 1252SOL     OW 4347   2.619   2.161   0.765  0.6417 -0.2138  0.4518
 1252SOL    HW1 4348   2.663   2.241   0.795 -0.2810  0.4254  0.1518
 1252SOL    HW2 4349   2.527   2.175   0.789  0.5608 -1.4271  0.8849
 1253SOL     OW 4350   2.307   1.918   1.456  0.0265 -0.1594 -0.0735
 1253SOL    HW1 4351   2.251   1.978   1.507  0.9962  0.5096  0.2303
 1253SOL    HW2 4352   2.341   1.973   1.386 -0.9057 -0.9568 -1.1763
 1254SOL     OW 4353   1.658   0.894   0.375  0.3573  0.2160 -0.0494
 1254SOL    HW1 4354   1.751   0.887   0.395  0.3144  0.6859  0.3572
 1254SOL    HW2 4355   1.654   0.904   0.280  0.7687  0.8213 -0.0086
 1255SOL     OW 4356   1.154   2.216   2.177  0.0735  0.3037 -0.1409
 1255SOL    HW1 4357   1.180   2.127   2.151 -2.4882 -0.4702 -0.3541
 1255SOL    HW2 4358   1.203   2.233   2.257  1.3767 -0.8868 -0.6376
 1256SOL     OW 4359   1.533   0.477   0.877  0.0792  0.1540  0.0846
 1256SOL    HW1 4360   1.455   0.429   0.850 -1.1523  1.6142  0.9213
 1256SOL    HW2 4361   1.550   0.449   0.967 -0.3503  0.8682  0.4018
 1257SOL     OW 4362   1.320   4.814   1.329  0.0695  0.4887 -0.2520
 1257SOL    HW1 4363   1.289   4.834   1.418  0.6556 -1.2558  0.3809
 1257SOL    HW2 4364   1.240   4.799   1.279 -0.2581  1.1793  0.0489
 1258SOL     OW 4365   3.926   1.606   0.027  0.4277 -0.2312  0.6551
 1258SOL    HW1 4366   3.997   1.597  -0.037  0.0748 -2.6710  0.5074
 1258SOL    HW2 4367   3.967   1.645   0.104  2.2369 -2.3993  0.9124
 1259SOL     OW 4368   4.091   5.013   0.252  0.3294  0.1011  0.5386
 1259SOL    HW1 4369   4.085   4.921   0.225 -1.3926 -0.0439  1.3494
 1259SOL    HW2 4370   4.158   5.049   0.194  1.6964 -1.8564  0.7844
 1260SOL     OW 4371   2.720   1.407   1.778 -0.0232  0.6034  0.1026
 1260SOL    HW1 4372   2.736   1.452   1.696 -0.8306  0.0822 -0.3588
 1260SOL    HW2 4373   2.692   1.476   1.839  2.1344  1.2575  0.4468
 1261SOL     OW 4374   2.523   0.242   2.179  0.1647 -0.3178 -0.6676
 1261SOL    HW1 4375   2.615   0.256   2.201  0.2865  3.9052 -2.8098
 1261SOL    HW2 4376   2.478   0.239   2.263  2.0758 -1.2002  0.3798
 1262SOL     OW 4377   3.131   5.024   3.030  0.3750 -0.4430  0.0652
 1262SOL    HW1 4378   3.068   4.953   3.021  2.0181 -2.7514  3.9421
 1262SOL    HW2 4379   3.203   4.999   2.973 -0.4923  0.0902 -1.3125
 1263SOL     OW 4380   2.935   1.169   2.462 -0.2909 -0.4229 -0.2958
 1263SOL    HW1 4381   2.851   1.130   2.436  0.3622 -1.6033 -0.6890
 1263SOL    HW2 4382   2.991   1.156   2.386 -0.0670  1.4041 -0.4782
 1264SOL     OW 4383   1.007   4.948   1.226  0.2788 -0.8031  0.0602
 1264SOL    HW1 4384   0.969   5.036   1.227  0.2827 -0.8019  0.1677
 1264SOL    HW2 4385   0.963   4.903   1.154  0.8747 -0.4545 -0.5377
 1265SOL     OW 4386   2.219   0.909   0.868  0.2188  0.2997 -0.3696
 1265SOL    HW1 4387   2.131   0.928   0.836 -0.1733  0.8824  0.9588
 1265SOL    HW2 4388   2.277   0.961   0.812 -0.3011  0.1929 -1.0222
 1266SOL     OW 4389   2.151   1.230   2.003  0.6037  0.4468  0.0528
 1266SOL    HW1 4390   2.183   1.164   2.064  0.0073  0.3079  0.2236
 1266SOL    HW2 4391   2.211   1.224   1.928  2.1336  1.5319  1.1478
 1267SOL     OW 4392   3.199   1.119   0.543 -0.3020 -0.3663 -0.0602
 1267SOL    HW1 4393   3.222   1.180   0.613 -1.4596 -1.8796  1.7332
 1267SOL    HW2 4394   3.111   1.145   0.516 -0.5743 -0.8642  0.3213
 1268SOL     OW 4395   0.518   0.162   2.805 -0.1858  0.6950 -0.0726
 1268SOL    HW1 4396   0.601   0.120   2.782 -0.4638 -0.1848  0.4698
 1268SOL    HW2 4397   0.456   0.129   2.740 -0.2519  0.8303 -0.0785
 1269SOL     OW 4398   1.541   1.475   2.368 -0.8339 -0.0718 -0.5242
 1269SOL    HW1 4399   1.501   1.431   2.443 -3.0378  0.8993 -1.0423
 1269SOL    HW2 4400   1.527   1.416   2.294  2.7245 -1.7709 -0.0560
 1270SOL     OW 4401   0.595   0.218   1.989  0.1635 -0.3204 -0.2842
 1270SOL    HW1 4402   0.685   0.239   1.961  0.3032 -2.0881 -1.3208
 1270SOL    HW2 4403   0.540   0.271   1.931  0.5099  0.5874  0.1910
 1271SOL     OW 4404   4.324   1.917   1.526 -0.0581 -0.1001  0.3178
 1271SOL    HW1 4405   4.273   1.992   1.495 -0.1687  0.5536  1.9630
 1271SOL    HW2 4406   4.415   1.947   1.520 -0.1047  0.1880  1.0126
 1272SOL     OW 4407   2.510   0.028   0.584 -0.6041  0.0759 -0.2192
 1272SOL    HW1 4408   2.498   0.120   0.606 -0.0848 -0.3068  1.9163
 1272SOL    HW2 4409   2.425  -0.013   0.605 -0.7087 -0.0079 -0.7846
 1273SOL     OW 4410   2.955   4.989   1.598  0.1771 -0.4120 -0.2591
 1273SOL    HW1 4411   2.861   5.002   1.613  0.2764 -0.3024  0.2816
 1273SOL    HW2 4412   2.959   4.926   1.526 -0.3147 -1.4585  0.5953
 1274SOL     OW 4413   2.331   5.050   2.537 -0.7277 -0.4436  0.1921
 1274SOL    HW1 4414   2.238   5.046   2.559 -0.6141 -0.5425  0.6521
 1274SOL    HW2 4415   2.342   5.135   2.494 -0.9687 -0.2946  0.4224
 1275SOL     OW 4416   2.382   1.826   2.709 -0.0612  0.4731 -0.1868
 1275SOL    HW1 4417   2.428   1.878   2.775  0.6085  0.9173 -0.9795
 1275SOL    HW2 4418   2.352   1.890   2.644  0.2123 -0.0449 -0.8413
 1276SOL     OW 4419   5.129   2.152   1.994 -0.1617  0.5860  0.1128
 1276SOL    HW1 4420   5.092   2.209   1.927 -0.1448  0.5505  0.0731
 1276SOL    HW2 4421   5.212   2.122   1.957 -0.6859 -0.3584 -0.3402
 1277SOL     OW 4422   3.733   0.091   2.299  0.1185 -0.3806  0.2832
 1277SOL    HW1 4423   3.793   0.151   2.255  0.3664 -0.6491  0.2477
 1277SOL    HW2 4424   3.650   0.138   2.303 -0.3715 -0.9439 -1.8950
 1278SOL     OW 4425   3.804   4.828   3.476  0.0018  0.0298 -0.4194
 1278SOL    HW1 4426   3.824   4.880   3.398 -1.0182  1.7290  0.4004
 1278SOL    HW2 4427   3.714   4.852   3.499  0.2585 -0.4633  1.2454
 1279SOL     OW 4428   2.484   4.974   0.356  0.4540 -0.4295 -0.2198
 1279SOL    HW1 4429   2.404   4.997   0.309  1.1133 -0.1902 -1.2729
 1279SOL    HW2 4430   2.499   4.882   0.334  0.2235 -0.6118  0.3625
 1280SOL     OW 4431   1.928   0.942   0.476  0.0180 -0.2149  0.2689
 1280SOL    HW1 4432   1.920   1.036   0.461  0.4165  0.4668  3.5259
 1280SOL    HW2 4433   2.023   0.926   0.477  0.1311  0.1091  2.9264
 1281SOL     OW 4434   2.477   0.765   1.669 -0.3120 -0.5602  0.1549
 1281SOL    HW1 4435   2.545   0.794   1.609 -0.1257 -0.0500  0.6059
 1281SOL    HW2 4436   2.402   0.745   1.612  0.5616 -2.3181 -0.4819
 1282SOL     OW 4437   2.644   0.242   1.726 -0.3769  1.0659 -0.0463
 1282SOL    HW1 4438   2.618   0.324   1.769  0.5558  2.1387 -1.4046
 1282SOL    HW2 4439   2.683   0.271   1.643  0.4925 -0.7395 -0.3081
 1283SOL     OW 4440   2.175   1.801   3.080  0.1528  0.0063  1.1294
 1283SOL    HW1 4441   2.238   1.862   3.043 -0.8563  0.1817 -0.4071
 1283SOL    HW2 4442   2.193   1.718   3.036 -1.4965  0.3763 -0.3836
 1284SOL     OW 4443   2.727   4.876   2.596  0.3261 -0.4516  0.3733
 1284SOL    HW1 4444   2.702   4.793   2.554 -0.2146 -0.6337  1.0366
 1284SOL    HW2 4445   2.719   4.941   2.526 -0.4161 -0.7730  0.1440
 1285SOL     OW 4446   0.829   1.446   1.962 -0.6200 -0.2926 -0.3007
 1285SOL    HW1 4447   0.738   1.417   1.954 -0.6820  0.2272 -1.7440
 1285SOL    HW2 4448   0.831   1.530   1.918  0.9377 -1.1451 -1.9598
 1286SOL     OW 4449   1.978   0.720   0.002  0.2513 -0.5210 -0.4940
 1286SOL    HW1 4450   2.011   0.679  -0.078  2.6266 -1.4109  0.8467
 1286SOL    HW2 4451   1.904   0.665   0.028 -0.5139 -0.2636 -1.9615
 1287SOL     OW 4452   2.303   0.748   1.072 -0.2456 -0.1862  0.0892
 1287SOL    HW1 4453   2.396   0.771   1.064  0.2275 -2.0499 -0.3192
 1287SOL    HW2 4454   2.259   0.802   1.006  0.7086 -0.0503 -0.4545
 1288SOL     OW 4455   2.441   0.600   2.394  0.1616  0.2902 -0.0036
 1288SOL    HW1 4456   2.438   0.577   2.487 -2.0234 -0.1292 -0.1294
 1288SOL    HW2 4457   2.397   0.528   2.349 -0.4362  1.3450 -1.1714
 1289SOL     OW 4458   2.316   0.953   1.313 -0.0286  0.5488  0.0214
 1289SOL    HW1 4459   2.244   0.897   1.286 -0.0125  0.7022 -0.3427
 1289SOL    HW2 4460   2.379   0.893   1.353 -0.4548  0.4430  0.5530
 1290SOL     OW 4461   1.775   0.825   2.726  0.2330  0.4265 -0.0671
 1290SOL    HW1 4462   1.735   0.871   2.652  0.5698 -0.7101 -0.9865
 1290SOL    HW2 4463   1.716   0.843   2.800 -0.3129  1.2752 -0.6842
 1291SOL     OW 4464   2.614   2.157   1.538  0.5578 -0.1220  0.3219
 1291SOL    HW1 4465   2.582   2.151   1.448 -1.0857  1.9353  0.6839
 1291SOL    HW2 4466   2.700   2.198   1.531  0.9194 -0.9620 -0.3543
 1292SOL     OW 4467   1.665   0.930   1.559 -0.0378  0.6934 -0.3352
 1292SOL    HW1 4468   1.723   0.965   1.626 -3.2580 -2.0189  4.5281
 1292SOL    HW2 4469   1.578   0.965   1.582 -1.5410 -1.5641 -2.0757
 1293SOL     OW 4470   2.490   5.138   1.799 -0.5231  0.5442 -0.0193
 1293SOL    HW1 4471   2.570   5.190   1.791 -0.4905  0.2519 -2.2314
 1293SOL    HW2 4472   2.429   5.195   1.846  0.3243  1.5690 -0.1298
 1294SOL     OW 4473   2.221   2.581   2.182 -0.0629  0.0404  0.0941
 1294SOL    HW1 4474   2.172   2.510   2.141  0.6206  0.5626 -1.6926
 1294SOL    HW2 4475   2.254   2.633   2.109  2.8260 -0.0609  1.2026
 1295SOL     OW 4476   2.226   0.268   0.483 -0.3472 -0.5396  0.2372
 1295SOL    HW1 4477   2.217   0.250   0.577  3.3510  0.0133  0.8718
 1295SOL    HW2 4478   2.255   0.184   0.446 -3.4474 -1.2506 -0.8702
 1296SOL     OW 4479   1.759   2.294   2.677  0.2151  0.4527  0.2526
 1296SOL    HW1 4480   1.735   2.204   2.655 -0.5140  0.7554 -0.2525
 1296SOL    HW2 4481   1.822   2.319   2.610 -0.7789  0.8328 -0.5639
 1297SOL     OW 4482   1.952   0.801   2.416 -0.5807  0.4510 -0.0876
 1297SOL    HW1 4483   1.961   0.888   2.376 -0.6440  0.2257 -0.5992
 1297SOL    HW2 4484   1.860   0.778   2.401 -0.1404 -0.4649 -1.5411
 1298SOL     OW 4485   1.635   1.364   0.804 -0.0050 -0.0792  0.6527
 1298SOL    HW1 4486   1.670   1.332   0.721  0.0042  0.1437  0.5685
 1298SOL    HW2 4487   1.650   1.459   0.801 -2.3225  0.3472 -0.2322
 1299SOL     OW 4488   2.143   0.549   0.552  0.3019  0.1865  0.1004
 1299SOL    HW1 4489   2.210   0.535   0.485 -0.3440  1.2413 -0.7945
 1299SOL    HW2 4490   2.070   0.492   0.526  0.4418 -0.1755  0.4889
 1300SOL     OW 4491   1.865   0.563   2.048 -0.1001 -0.1750 -0.7688
 1300SOL    HW1 4492   1.929   0.585   2.115 -1.0980 -0.4590  0.3119
 1300SOL    HW2 4493   1.918   0.530   1.974  0.9646 -1.3590  0.4579
 1301SOL     OW 4494   1.761   2.112   3.042 -0.5674  0.2040  0.1483
 1301SOL    HW1 4495   1.674   2.117   3.002  0.1126  1.4804 -1.2559
 1301SOL    HW2 4496   1.757   2.175   3.114 -0.9751 -0.1688  0.4593
 1302SOL     OW 4497   2.512   0.395   3.387  0.3874  0.1008  0.0771
 1302SOL    HW1 4498   2.470   0.420   3.305 -0.6400 -0.0853  0.5394
 1302SOL    HW2 4499   2.486   0.462   3.450  0.5508 -0.1677  0.4377
 1303SOL     OW 4500   2.561   0.794   0.964 -0.0671  0.1674 -0.3193
 1303SOL    HW1 4501   2.565   0.856   0.891  0.4331  0.5712  0.0385
 1303SOL    HW2 4502   2.630   0.823   1.024 -1.4126  0.7304  1.0317
 1304SOL     OW 4503   2.348   1.470   0.436 -0.1133 -0.5786 -0.3758
 1304SOL    HW1 4504   2.288   1.415   0.485 -1.3407 -0.7819 -2.0001
 1304SOL    HW2 4505   2.342   1.556   0.478  0.8936 -1.3222  1.4117
 1305SOL     OW 4506   1.515   1.646   3.170  0.3955  0.0470  0.3935
 1305SOL    HW1 4507   1.549   1.720   3.121 -1.6460  0.7408 -0.0768
 1305SOL    HW2 4508   1.507   1.678   3.260  1.6120 -0.3592  0.6646
 1306SOL     OW 4509   2.778   0.860   1.475  0.7468  0.0119  0.3517
 1306SOL    HW1 4510   2.871   0.842   1.465  0.5661 -0.5817 -0.3121
 1306SOL    HW2 4511   2.748   0.881   1.387 -0.0681 -1.3632  0.2835
 1307SOL     OW 4512   2.235   0.444   2.199  0.1384 -0.2844  0.5289
 1307SOL    HW1 4513   2.277   0.445   2.113  0.4215  0.2264  0.6685
 1307SOL    HW2 4514   2.198   0.531   2.208  1.6842  0.2936  1.6805
 1308SOL     OW 4515   1.957   1.204   0.231  0.3744  0.4229 -0.0442
 1308SOL    HW1 4516   2.050   1.223   0.241  0.5907 -0.4928 -0.1848
 1308SOL    HW2 4517   1.951   1.156   0.148 -0.1020 -0.2261  0.3557
 1309SOL     OW 4518   3.187   0.529   0.985 -0.1458  0.3246  0.0609
 1309SOL    HW1 4519   3.251   0.539   0.914  0.6637  1.7451  0.9327
 1309SOL    HW2 4520   3.241   0.518   1.064 -1.0294 -1.5845  0.4492
 1310SOL     OW 4521   1.396   0.367   3.518 -0.3429  0.8157 -0.8135
 1310SOL    HW1 4522   1.398   0.463   3.517  3.6852  0.9022 -0.9688
 1310SOL    HW2 4523   1.472   0.341   3.465 -0.6452 -2.4543  0.1567
 1311SOL     OW 4524   2.207   1.366   0.665  0.5072  0.3569  0.7199
 1311SOL    HW1 4525   2.172   1.338   0.749 -2.2680 -2.3874 -1.1263
 1311SOL    HW2 4526   2.180   1.457   0.657 -0.8598  0.1044  1.9993
 1312SOL     OW 4527   2.105   0.120   2.268  0.5235  0.2411  0.1142
 1312SOL    HW1 4528   2.040   0.188   2.282  0.9976  0.8642 -0.6516
 1312SOL    HW2 4529   2.160   0.152   2.196 -0.5412 -1.8612 -1.7946
 1313SOL     OW 4530   2.486   0.073   1.979 -0.5733  0.0084  0.3664
 1313SOL    HW1 4531   2.578   0.070   1.955 -0.2545 -1.2010  1.6208
 1313SOL    HW2 4532   2.480   0.143   2.044 -0.5130 -0.0785  0.4634
 1314SOL     OW 4533   3.167   1.443   0.552 -0.4117 -0.4284 -0.5611
 1314SOL    HW1 4534   3.072   1.456   0.546 -0.3973 -0.3587 -0.6413
 1314SOL    HW2 4535   3.204   1.520   0.509 -0.3027 -0.0225  0.2333
 1315SOL     OW 4536   1.753   2.194   1.059  0.2111 -0.1912 -0.4228
 1315SOL    HW1 4537   1.681   2.175   0.998 -0.1820  1.3948 -0.5070
 1315SOL    HW2 4538   1.735   2.139   1.135 -1.2115  0.2810 -0.3718
 1316SOL     OW 4539   2.339   1.471   1.702 -0.2656 -0.5766 -0.1012
 1316SOL    HW1 4540   2.432   1.454   1.683  0.8259  1.5687  2.5846
 1316SOL    HW2 4541   2.324   1.560   1.669 -0.5494  0.1263  1.8355
 1317SOL     OW 4542   2.715   0.076   2.325  0.0658  0.2825 -0.0238
 1317SOL    HW1 4543   2.809   0.094   2.338  0.5450 -2.8482  1.9839
 1317SOL    HW2 4544   2.671   0.150   2.368  1.6909  0.3157  1.7328
 1318SOL     OW 4545   1.743   0.938   0.094  0.1407 -0.0278  1.1083
 1318SOL    HW1 4546   1.777   0.848   0.092  1.2996  0.3878  1.6336
 1318SOL    HW2 4547   1.818   0.993   0.074 -0.7072  0.8125  0.1074
 1319SOL     OW 4548   3.301   5.249   2.029  0.1904 -0.1630  0.5949
 1319SOL    HW1 4549   3.287   5.339   2.000 -1.0205 -0.7848 -0.8934
 1319SOL    HW2 4550   3.379   5.221   1.982 -1.1448 -0.8092 -1.3904
 1320SOL     OW 4551   1.381   1.330   0.317  0.1074 -0.0508  0.0613
 1320SOL    HW1 4552   1.306   1.345   0.375 -0.5446 -1.1894 -0.4641
 1320SOL    HW2 4553   1.407   1.240   0.334  2.2182  0.7005  1.1697
 1321SOL     OW 4554   3.059   0.460   2.578  0.0725  0.4068 -0.4512
 1321SOL    HW1 4555   3.104   0.385   2.618  1.2014  2.0150  1.5269
 1321SOL    HW2 4556   3.128   0.506   2.529  0.2038  1.7683  0.9057
 1322SOL     OW 4557   1.653   0.813   0.821  0.4440 -0.3179  0.1976
 1322SOL    HW1 4558   1.638   0.906   0.837 -0.1842 -0.3663 -0.0760
 1322SOL    HW2 4559   1.646   0.803   0.726 -0.1312 -0.7435  0.2802
 1323SOL     OW 4560   1.589   0.302   3.300  0.2645 -0.3057 -0.0364
 1323SOL    HW1 4561   1.517   0.283   3.240  0.5592  0.6898 -0.7323
 1323SOL    HW2 4562   1.622   0.216   3.326  0.8070 -0.7905 -2.1406
 1324SOL     OW 4563   2.300   1.119   2.633 -0.5121 -0.4440  0.2457
 1324SOL    HW1 4564   2.292   1.060   2.557  0.9044 -0.9236  0.4366
 1324SOL    HW2 4565   2.364   1.076   2.689 -1.2813  0.0928  1.5607
 1325SOL     OW 4566   2.877   1.486   0.500 -0.2369 -0.0671  0.1607
 1325SOL    HW1 4567   2.806   1.427   0.525  0.0248 -0.2492  0.4741
 1325SOL    HW2 4568   2.837   1.573   0.496 -0.7989 -0.3546 -1.0096
 1326SOL     OW 4569   2.185   1.307   3.233  0.8938 -0.1656  0.1393
 1326SOL    HW1 4570   2.172   1.226   3.183 -1.0836 -0.0172  0.3376
 1326SOL    HW2 4571   2.250   1.283   3.300 -0.8158 -2.0887  1.2147
 1327SOL     OW 4572   1.582   1.791   0.865 -0.1417 -0.3624  0.8667
 1327SOL    HW1 4573   1.575   1.725   0.934 -0.0424 -0.0760  1.1538
 1327SOL    HW2 4574   1.563   1.874   0.909 -0.0348 -0.1729  0.5587
 1328SOL     OW 4575   3.498   1.756   0.904 -0.1545  0.5970  0.6697
 1328SOL    HW1 4576   3.556   1.734   0.977 -1.1372 -1.2478  0.9586
 1328SOL    HW2 4577   3.447   1.676   0.889 -2.2090  1.9549  0.0270
 1329SOL     OW 4578   3.075   0.438   1.862  0.6371  0.0890  0.5927
 1329SOL    HW1 4579   3.038   0.515   1.819  1.6986  0.1966 -0.1797
 1329SOL    HW2 4580   3.020   0.425   1.939 -1.1485  0.0840 -0.6130
 1330SOL     OW 4581   4.079   0.291   3.044  0.0809  0.4544  0.2342
 1330SOL    HW1 4582   4.152   0.253   2.995 -0.8250  0.1425 -0.9087
 1330SOL    HW2 4583   4.052   0.367   2.993 -1.0978 -0.0696  0.0397
 1331SOL     OW 4584   1.267   2.369   3.196 -0.0420  0.6812 -0.0526
 1331SOL    HW1 4585   1.318   2.448   3.211  0.1665  0.4700  0.3645
 1331SOL    HW2 4586   1.274   2.353   3.101  1.2337  0.2731  0.0908
 1332SOL     OW 4587   3.500   0.537   1.536 -0.5768 -0.1073  0.2535
 1332SOL    HW1 4588   3.425   0.592   1.514  0.2139  0.7965 -0.2409
 1332SOL    HW2 4589   3.555   0.538   1.458 -0.9225 -2.3079 -0.0918
 1333SOL     OW 4590   2.831   5.152   0.255 -0.2249  0.5713  0.2264
 1333SOL    HW1 4591   2.763   5.217   0.238 -0.4715  0.1494 -0.4667
 1333SOL    HW2 4592   2.806   5.111   0.337  0.2412  1.7273  0.9746
 1334SOL     OW 4593   2.848   0.566   1.597  0.0821 -0.1103 -0.2565
 1334SOL    HW1 4594   2.938   0.539   1.577  0.5127  1.4385 -0.6028
 1334SOL    HW2 4595   2.859   0.636   1.662 -0.8127  0.5633 -0.8045
 1335SOL     OW 4596   3.882   0.479   1.506  0.1094 -0.0140  0.2522
 1335SOL    HW1 4597   3.973   0.485   1.477  0.3023  1.1766  1.0208
 1335SOL    HW2 4598   3.886   0.429   1.588  0.0134 -0.3722  0.0374
 1336SOL     OW 4599   3.703   0.922   1.620 -0.2385  0.0255 -0.0245
 1336SOL    HW1 4600   3.663   0.926   1.707 -0.6178 -1.3897 -0.1038
 1336SOL    HW2 4601   3.683   1.007   1.580 -2.5765 -0.3488  0.2227
 1337SOL     OW 4602   0.778   5.368   3.220  0.3277  0.2453 -0.3251
 1337SOL    HW1 4603   0.700   5.368   3.164 -0.1415 -3.2670  0.0881
 1337SOL    HW2 4604   0.745   5.390   3.307  0.3670  1.7041 -0.6548
 1338SOL     OW 4605   3.021   1.441   0.249  0.4590  0.5105  0.5781
 1338SOL    HW1 4606   2.983   1.475   0.330 -0.4121  0.0860  0.3541
 1338SOL    HW2 4607   3.102   1.491   0.238  0.9751  0.0898  2.0918
 1339SOL     OW 4608   2.357   0.169   1.736  0.1522 -0.4495 -0.5020
 1339SOL    HW1 4609   2.439   0.198   1.695  0.0583  1.9085  0.7976
 1339SOL    HW2 4610   2.385   0.127   1.817  0.0970  0.5029  0.0219
 1340SOL     OW 4611   3.503   0.889   3.544 -0.0201 -0.6425  0.3172
 1340SOL    HW1 4612   3.421   0.848   3.519 -0.9685  0.0836  2.0605
 1340SOL    HW2 4613   3.516   0.959   3.480  0.4537 -2.1537 -1.3187
 1341SOL     OW 4614   4.196   1.222   0.698 -0.3939 -0.4385  0.0536
 1341SOL    HW1 4615   4.243   1.299   0.731 -0.5076  0.0540 -0.9181
 1341SOL    HW2 4616   4.265   1.160   0.676 -0.2729 -0.3664  0.2226
 1342SOL     OW 4617   2.257   1.793   1.884 -0.0833  0.1088  0.7403
 1342SOL    HW1 4618   2.283   1.883   1.865  1.2305 -0.3324  0.3511
 1342SOL    HW2 4619   2.262   1.787   1.979 -0.3236  0.4960  0.7785
 1343SOL     OW 4620   2.882   5.133   2.014  0.5005 -0.0964 -0.4782
 1343SOL    HW1 4621   2.967   5.142   2.056  0.3123 -0.6409  0.0416
 1343SOL    HW2 4622   2.826   5.195   2.061  0.1658 -1.0597  0.4566
 1344SOL     OW 4623   3.346   1.118   1.551 -0.7709  0.3188  0.0578
 1344SOL    HW1 4624   3.434   1.153   1.531 -0.9579 -0.0025 -1.4149
 1344SOL    HW2 4625   3.301   1.191   1.595 -0.4380  1.2036 -1.0270
 1345SOL     OW 4626   3.613   0.526   3.450 -0.2704 -0.2678 -0.2207
 1345SOL    HW1 4627   3.568   0.462   3.395 -1.6924 -0.2333  0.8145
 1345SOL    HW2 4628   3.609   0.607   3.401  0.6780 -0.7579 -1.1239
 1346SOL     OW 4629   2.249   5.165   0.823 -0.1346 -0.3914 -0.1585
 1346SOL    HW1 4630   2.176   5.133   0.876 -0.5681  0.2609 -0.3482
 1346SOL    HW2 4631   2.281   5.088   0.777  0.1474 -0.9445  0.9123
 1347SOL     OW 4632   1.012   4.058   0.699  0.5531 -0.1717  0.0733
 1347SOL    HW1 4633   1.047   4.042   0.612  0.7423  0.2886  0.0614
 1347SOL    HW2 4634   0.944   3.991   0.710 -0.5026  0.6783 -1.0094
 1348SOL     OW 4635   2.399   0.471   0.428  0.4098 -0.5549  0.5903
 1348SOL    HW1 4636   2.352   0.400   0.472 -1.0930  0.3141  0.4433
 1348SOL    HW2 4637   2.463   0.426   0.372  1.0504 -1.7190  2.1586
 1349SOL     OW 4638   3.313   0.881   1.787  0.1994  0.4709  0.2863
 1349SOL    HW1 4639   3.383   0.938   1.756 -0.5009  0.1593 -2.0838
 1349SOL    HW2 4640   3.351   0.833   1.860  2.4806  0.3078 -0.9060
 1350SOL     OW 4641   4.210   4.862   2.556  0.2105 -0.1264  0.2024
 1350SOL    HW1 4642   4.213   4.847   2.462  0.8934  0.2052  0.1641
 1350SOL    HW2 4643   4.239   4.779   2.594 -1.3598 -0.7131  0.1768
 1351SOL     OW 4644   1.535   0.180   1.339  0.0698  0.2128  0.9075
 1351SOL    HW1 4645   1.612   0.136   1.375 -0.2845  0.3871  1.9345
 1351SOL    HW2 4646   1.515   0.248   1.403 -2.0174 -0.9908  1.6626
 1352SOL     OW 4647   2.011   5.050   0.941  0.0984 -0.5858  0.1942
 1352SOL    HW1 4648   1.964   5.042   1.023  0.7764 -1.6041  0.4992
 1352SOL    HW2 4649   1.958   5.111   0.889 -1.7438 -1.9335  0.3854
 1353SOL     OW 4650   2.482   0.160   1.043  0.1606 -0.0776  0.1975
 1353SOL    HW1 4651   2.501   0.166   0.950 -1.6957 -2.3360 -0.4324
 1353SOL    HW2 4652   2.456   0.249   1.068  0.1990  0.4536 -1.5508
 1354SOL     OW 4653   3.640   0.582   0.864 -0.2725  0.3968 -0.3686
 1354SOL    HW1 4654   3.623   0.495   0.828  0.7970 -0.7770  1.7872
 1354SOL    HW2 4655   3.696   0.624   0.799 -0.8350 -0.4823 -1.4630
 1355SOL     OW 4656   2.700   1.208   0.916 -0.1744 -0.1233  0.4549
 1355SOL    HW1 4657   2.756   1.284   0.932 -1.0288  1.5583 -3.4665
 1355SOL    HW2 4658   2.618   1.228   0.961  0.2599  0.3126  1.0660
 1356SOL     OW 4659   2.199   2.133   3.213  0.2100 -0.1752  0.1233
 1356SOL    HW1 4660   2.156   2.125   3.298  0.8911 -1.9368  0.3514
 1356SOL    HW2 4661   2.158   2.209   3.172 -0.5392  0.3583  1.7809
 1357SOL     OW 4662   2.165   5.106   2.951 -0.0752  0.5996  0.0395
 1357SOL    HW1 4663   2.096   5.043   2.930  0.5625  0.0234 -0.3632
 1357SOL    HW2 4664   2.142   5.185   2.903 -1.7718  1.2793  1.8017
 1358SOL     OW 4665   4.418   0.450   0.371 -0.3272  0.3345 -0.3470
 1358SOL    HW1 4666   4.417   0.414   0.282  0.7741  0.4852 -0.4338
 1358SOL    HW2 4667   4.507   0.484   0.382 -0.9278  1.8252  0.2156
 1359SOL     OW 4668   2.482   0.983   2.771  0.2441 -0.5315 -0.2115
 1359SOL    HW1 4669   2.558   0.957   2.822  0.3744  0.9462  0.3767
 1359SOL    HW2 4670   2.417   0.914   2.788  0.7221 -0.7127  0.9385
 1360SOL     OW 4671   1.246   3.413   2.640 -0.1381  0.2811  0.0484
 1360SOL    HW1 4672   1.332   3.454   2.652  0.1696 -0.8454  2.3411
 1360SOL    HW2 4673   1.267   3.322   2.616 -0.7415  0.3884 -0.9267
 1361SOL     OW 4674   3.823   1.185   0.601  0.0018 -0.4270 -0.0262
 1361SOL    HW1 4675   3.896   1.192   0.540 -0.2947  0.7993 -0.2794
 1361SOL    HW2 4676   3.776   1.106   0.575 -0.5941  0.4924 -1.9362
 1362SOL     OW 4677   1.687   0.747   2.387 -0.1833  0.0861 -0.0173
 1362SOL    HW1 4678   1.605   0.782   2.421 -0.2607  0.4310 -0.5423
 1362SOL    HW2 4679   1.667   0.719   2.298 -0.0814 -1.1768  0.3377
 1363SOL     OW 4680   4.254   0.401   3.265 -0.0010 -0.3123 -0.4323
 1363SOL    HW1 4681   4.227   0.452   3.341 -0.2712 -0.6975 -0.2610
 1363SOL    HW2 4682   4.172   0.368   3.228  0.2489 -2.0745  0.4975
 1364SOL     OW 4683   1.866   1.337   1.601 -0.2574  0.4610  0.0377
 1364SOL    HW1 4684   1.914   1.267   1.557 -0.3519  0.9610 -0.8923
 1364SOL    HW2 4685   1.926   1.411   1.602  0.1577  0.1434  1.7905
 1365SOL     OW 4686   2.800   0.565   2.574 -0.0667 -0.2073  0.5729
 1365SOL    HW1 4687   2.878   0.518   2.603 -0.4118 -2.2640 -1.5633
 1365SOL    HW2 4688   2.834   0.645   2.534  0.6349  0.6418  2.6777
 1366SOL     OW 4689   2.478   0.732   0.393  0.8470 -0.4764 -0.1179
 1366SOL    HW1 4690   2.541   0.772   0.453  0.0830 -0.0315  0.4046
 1366SOL    HW2 4691   2.457   0.648   0.433  1.4618 -0.8404 -0.5419
 1367SOL     OW 4692   2.103   1.022   3.372  0.2534  0.1723  0.0318
 1367SOL    HW1 4693   2.052   0.974   3.306  1.2613  0.0194 -0.6591
 1367SOL    HW2 4694   2.169   0.959   3.401  0.4158  0.5514  0.4930
 1368SOL     OW 4695   2.626   0.583   2.811 -0.6583 -0.2338 -0.0752
 1368SOL    HW1 4696   2.643   0.676   2.825  0.6366 -0.5673  0.6605
 1368SOL    HW2 4697   2.679   0.560   2.734  1.1287 -0.9259  1.3032
 1369SOL     OW 4698   3.261   0.694   0.012 -0.3199 -0.3622 -0.2152
 1369SOL    HW1 4699   3.193   0.752   0.048  2.0204  2.2034  0.3738
 1369SOL    HW2 4700   3.314   0.670   0.088  1.4776  0.6103 -1.1145
 1370SOL     OW 4701   2.003   1.712   1.771 -0.0879 -0.3203 -0.2086
 1370SOL    HW1 4702   1.941   1.750   1.833 -1.3467 -0.1056 -1.5711
 1370SOL    HW2 4703   2.089   1.736   1.806 -0.7224 -0.5788  1.6863
 1371SOL     OW 4704   1.810   1.441   2.395 -0.5696  0.7503  0.3489
 1371SOL    HW1 4705   1.857   1.511   2.351 -1.1815  0.2998 -1.0722
 1371SOL    HW2 4706   1.719   1.451   2.365 -1.0907  0.6672  1.8291
 1372SOL     OW 4707   1.995   0.118   3.371 -0.1775 -0.2807  0.4536
 1372SOL    HW1 4708   1.998   0.028   3.402  1.3743 -0.4268 -0.0110
 1372SOL    HW2 4709   1.927   0.119   3.304  1.9317 -1.9460 -1.8702
 1373SOL     OW 4710   1.611   1.722   1.274 -0.0884 -0.2828  0.3084
 1373SOL    HW1 4711   1.522   1.736   1.305 -0.3387  1.4012 -1.0528
 1373SOL    HW2 4712   1.601   1.665   1.198 -0.0106 -0.1189  0.1741
 1374SOL     OW 4713   3.146   1.069   2.965 -1.1309 -0.0785 -0.0820
 1374SOL    HW1 4714   3.172   0.977   2.962 -1.8013 -0.2544 -0.7427
 1374SOL    HW2 4715   3.146   1.097   2.874  0.4863  1.0101  0.2105
 1375SOL     OW 4716   3.006   5.411   1.299  0.3527 -0.4339  0.5049
 1375SOL    HW1 4717   2.989   5.344   1.365 -0.0783 -0.7281  0.0988
 1375SOL    HW2 4718   2.972   5.492   1.337 -0.5600 -0.7337  0.3438
 1376SOL     OW 4719   1.450   0.699   1.883  0.0816  0.9275 -0.1719
 1376SOL    HW1 4720   1.521   0.762   1.875  0.8651  0.3844  1.9229
 1376SOL    HW2 4721   1.375   0.741   1.840  1.4545  1.7831 -1.8347
 1377SOL     OW 4722   4.056   3.052   2.927 -0.2868 -0.5393 -0.3351
 1377SOL    HW1 4723   4.104   3.122   2.971 -1.9855 -0.6311  1.8437
 1377SOL    HW2 4724   4.105   2.972   2.947 -0.4860 -0.4448  0.5758
 1378SOL     OW 4725   2.682   1.923   2.382  0.0613 -0.1787  0.1978
 1378SOL    HW1 4726   2.658   1.988   2.447  0.9105 -0.6913  1.0563
 1378SOL    HW2 4727   2.605   1.867   2.373 -0.3443  0.3839  0.1345
 1379SOL     OW 4728   3.421   0.314   2.062  0.3333 -0.0032  0.0341
 1379SOL    HW1 4729   3.487   0.319   2.132 -2.2570 -0.4041  2.7296
 1379SOL    HW2 4730   3.367   0.392   2.075  0.4627  0.5710 -2.4127
 1380SOL     OW 4731   3.847   1.137   1.484 -0.0197 -0.2764 -0.1104
 1380SOL    HW1 4732   3.872   1.190   1.408  0.4325  0.0750  0.2816
 1380SOL    HW2 4733   3.929   1.099   1.515  0.0425  0.8105  1.1313
 1381SOL     OW 4734   2.541   1.258   0.031  0.2175 -0.4517 -0.2479
 1381SOL    HW1 4735   2.628   1.292   0.049  0.4099 -0.8681 -0.3716
 1381SOL    HW2 4736   2.488   1.285   0.107  0.6385 -0.8437  0.1935
 1382SOL     OW 4737   2.630   2.154   2.522  0.3040 -0.8907 -0.0873
 1382SOL    HW1 4738   2.585   2.193   2.598  1.2396 -1.0623  0.5779
 1382SOL    HW2 4739   2.581   2.186   2.446 -1.2909 -1.5387  0.6181
 1383SOL     OW 4740   4.040   0.548   2.928  0.2155 -0.3731  0.3878
 1383SOL    HW1 4741   4.110   0.586   2.874 -1.4268 -0.5361 -2.0056
 1383SOL    HW2 4742   4.023   0.614   2.994 -0.7032  1.9984 -2.0223
 1384SOL     OW 4743   1.828   4.523   2.294 -0.0437 -0.2928  0.0325
 1384SOL    HW1 4744   1.842   4.428   2.284 -0.4776 -0.4851  1.0651
 1384SOL    HW2 4745   1.765   4.530   2.366  1.2103  0.8361  1.0829
 1385SOL     OW 4746   1.033   0.901   3.292  0.1519 -0.2768  0.1330
 1385SOL    HW1 4747   1.050   0.899   3.386  0.8900  0.9596  0.0454
 1385SOL    HW2 4748   1.118   0.885   3.251  0.0783  0.4192 -0.3108
 1386SOL     OW 4749   4.125   0.674   1.478  0.2548  0.3749  0.0842
 1386SOL    HW1 4750   4.060   0.721   1.530  0.0327  1.0700 -0.7949
 1386SOL    HW2 4751   4.153   0.738   1.412  0.9764 -0.2910 -0.2610
 1387SOL     OW 4752   3.637   0.774   3.247  0.5089  0.8540  0.1673
 1387SOL    HW1 4753   3.653   0.698   3.192 -0.7530  0.5734  0.1555
 1387SOL    HW2 4754   3.573   0.826   3.198 -1.7054 -0.0703  1.8980
 1388SOL     OW 4755   4.720   1.885   2.310 -0.0428 -0.1482  0.4061
 1388SOL    HW1 4756   4.758   1.886   2.222  0.5261 -2.2151  0.5801
 1388SOL    HW2 4757   4.634   1.926   2.299  0.3963  0.4795 -0.9086
 1389SOL     OW 4758   2.868   0.375   3.383  0.0499 -0.4393  0.0151
 1389SOL    HW1 4759   2.937   0.427   3.422 -1.5344  1.0494  0.9850
 1389SOL    HW2 4760   2.812   0.350   3.457 -0.8669 -0.9626 -0.8228
 1390SOL     OW 4761   2.719   0.811   0.507  0.3921  1.1247  0.1520
 1390SOL    HW1 4762   2.726   0.770   0.593 -0.9625  0.5898  0.0342
 1390SOL    HW2 4763   2.797   0.780   0.460 -0.0476 -0.4832  0.4233
 1391SOL     OW 4764   3.377   2.106   2.461 -0.7043  0.7039  0.1441
 1391SOL    HW1 4765   3.288   2.131   2.489 -1.4457 -0.6487 -0.8887
 1391SOL    HW2 4766   3.423   2.190   2.453 -1.4481  1.3460  2.0410
 1392SOL     OW 4767   2.377   0.876   3.378 -0.7881  0.0552 -0.2245
 1392SOL    HW1 4768   2.352   0.794   3.335  1.0385 -0.2295 -0.8634
 1392SOL    HW2 4769   2.377   0.941   3.308  0.3576 -0.0079 -0.3156
 1393SOL     OW 4770   2.036   0.856   1.507  0.3610  0.5226  0.0941
 1393SOL    HW1 4771   1.981   0.795   1.556  0.7439  0.5747  0.5946
 1393SOL    HW2 4772   2.083   0.801   1.444 -0.2216  0.4715 -0.3029
 1394SOL     OW 4773   2.311   2.128   0.884  0.4581 -0.4051  0.5884
 1394SOL    HW1 4774   2.307   2.223   0.897  0.6769 -0.2979 -0.1149
 1394SOL    HW2 4775   2.227   2.107   0.842  0.5419 -0.4823  0.4625
 1395SOL     OW 4776   3.477   4.631   3.277 -0.4859  0.4447 -0.4832
 1395SOL    HW1 4777   3.551   4.673   3.233  1.0719 -1.3456  0.2427
 1395SOL    HW2 4778   3.400   4.665   3.233  0.7839  2.0834 -1.5651
 1396SOL     OW 4779   2.220   1.367   2.618  0.5749 -0.4006  0.0840
 1396SOL    HW1 4780   2.233   1.274   2.599 -1.7005 -0.8445  0.3786
 1396SOL    HW2 4781   2.164   1.368   2.695 -0.0592  1.1859 -0.3484
 1397SOL     OW 4782   1.682   1.461   3.029 -0.7352  0.2781  0.8204
 1397SOL    HW1 4783   1.632   1.528   3.075 -0.0212  0.8782  0.7392
 1397SOL    HW2 4784   1.772   1.471   3.061 -0.4272  0.0184  0.0728
 1398SOL     OW 4785   3.362   4.937   2.304  0.1513 -0.3395  0.4130
 1398SOL    HW1 4786   3.401   4.872   2.245 -0.4738  1.1777 -1.8153
 1398SOL    HW2 4787   3.428   5.006   2.312 -0.0262 -0.2284  0.9812
 1399SOL     OW 4788   3.570   0.943   2.515  0.5664 -0.3988  0.1506
 1399SOL    HW1 4789   3.535   0.999   2.584 -0.8624 -1.1889  0.0952
 1399SOL    HW2 4790   3.498   0.934   2.453  1.8144  0.2848 -1.4772
 1400SOL     OW 4791   3.635   5.196   0.145  0.0326 -0.6521 -0.1459
 1400SOL    HW1 4792   3.701   5.244   0.094 -1.0488  0.8242 -0.2037
 1400SOL    HW2 4793   3.551   5.233   0.117 -0.8509 -2.5306 -0.1036
 1401SOL     OW 4794   2.667   2.762   2.157  0.4386  0.2267 -0.7072
 1401SOL    HW1 4795   2.693   2.738   2.246  0.9453 -2.3240 -1.4624
 1401SOL    HW2 4796   2.716   2.842   2.138  0.2818  0.8350  1.2939
 1402SOL     OW 4797   2.355   2.734   3.156 -0.4223  0.1200  0.5299
 1402SOL    HW1 4798   2.444   2.768   3.165  0.0026 -1.0462  1.0253
 1402SOL    HW2 4799   2.316   2.745   3.243 -1.2012  1.7390  0.0036
 1403SOL     OW 4800   4.116   0.599   3.439  0.0855 -0.0961  0.3486
 1403SOL    HW1 4801   4.023   0.622   3.435 -0.0855 -0.2321  2.4834
 1403SOL    HW2 4802   4.120   0.529   3.504  1.4274 -1.6766 -1.3617
 1404SOL     OW 4803   1.478   0.653   3.550 -0.0285  0.2109 -0.7890
 1404SOL    HW1 4804   1.409   0.713   3.578 -0.4208 -0.5230 -0.1284
 1404SOL    HW2 4805   1.494   0.675   3.458 -2.4990 -0.8630 -1.5389
 1405SOL     OW 4806   1.814   5.286   1.790 -0.0072  0.0437 -0.4848
 1405SOL    HW1 4807   1.901   5.289   1.751  0.7212 -1.0580  0.9576
 1405SOL    HW2 4808   1.827   5.245   1.876 -2.2288 -2.0266 -1.0313
 1406SOL     OW 4809   5.025   0.272   2.929 -0.0023 -0.4753 -0.0622
 1406SOL    HW1 4810   5.042   0.188   2.887  1.2499  0.4045 -1.4002
 1406SOL    HW2 4811   5.032   0.337   2.858  0.7851  0.9256  1.2251
 1407SOL     OW 4812   3.081   1.401   2.519  0.3860 -0.3911  0.4594
 1407SOL    HW1 4813   3.012   1.337   2.501  0.5509  0.1137 -2.4767
 1407SOL    HW2 4814   3.061   1.434   2.606 -1.8844 -1.7184  0.5240
 1408SOL     OW 4815   2.264   5.385   0.673 -0.4494 -0.6387  0.0330
 1408SOL    HW1 4816   2.270   5.296   0.708 -1.4509 -0.8292 -0.2587
 1408SOL    HW2 4817   2.198   5.428   0.728 -0.3217 -0.2212 -0.1343
 1409SOL     OW 4818   4.330   1.187   2.460 -0.3880 -0.2916 -0.2304
 1409SOL    HW1 4819   4.312   1.214   2.550  0.3961 -1.8714  0.4404
 1409SOL    HW2 4820   4.316   1.266   2.408  0.8856  1.1591  1.4955
 1410SOL     OW 4821   2.797   2.784   3.097 -0.6240 -0.1353 -0.2697
 1410SOL    HW1 4822   2.746   2.823   3.167 -0.8052  0.6257 -0.8143
 1410SOL    HW2 4823   2.865   2.848   3.077 -0.7959 -0.1801 -1.0346
 1411SOL     OW 4824   3.923   0.543   2.587 -0.7730  0.3452  0.2761
 1411SOL    HW1 4825   3.867   0.596   2.529 -1.1440 -1.0843 -0.7364
 1411SOL    HW2 4826   4.004   0.531   2.537 -0.4634  0.4341  0.7503
 1412SOL     OW 4827   1.567   1.606   0.611  0.4373  1.1414 -0.0260
 1412SOL    HW1 4828   1.475   1.588   0.633  0.7646  1.5652  1.8889
 1412SOL    HW2 4829   1.586   1.687   0.657  2.3259  0.0185  1.2982
 1413SOL     OW 4830   2.982   1.019   3.406 -0.6923  0.1990 -0.7682
 1413SOL    HW1 4831   2.973   1.104   3.449 -0.7708  0.1156 -0.6200
 1413SOL    HW2 4832   2.930   1.027   3.326  0.3017  0.7133 -1.3815
 1414SOL     OW 4833   3.059   0.705   0.709 -0.5117  0.6544  0.2221
 1414SOL    HW1 4834   2.980   0.726   0.758 -1.0965 -0.5278 -0.1819
 1414SOL    HW2 4835   3.130   0.740   0.762 -1.1736 -0.0052  1.5789
 1415SOL     OW 4836   1.662   0.867   1.852 -0.0380  0.1589 -0.1753
 1415SOL    HW1 4837   1.746   0.908   1.829 -0.4016 -0.3056 -2.6104
 1415SOL    HW2 4838   1.618   0.931   1.908  0.9655  1.4321 -0.7881
 1416SOL     OW 4839   2.432   2.577   3.510 -0.1311  0.1584 -0.0017
 1416SOL    HW1 4840   2.443   2.543   3.421  0.2118  2.2440 -0.7978
 1416SOL    HW2 4841   2.520   2.597   3.539 -0.4436  2.3008 -0.3940
 1417SOL     OW 4842   2.224   4.343   0.055  0.2231 -0.4966 -0.0233
 1417SOL    HW1 4843   2.284   4.293   0.110 -0.0731 -0.2494  0.5331
 1417SOL    HW2 4844   2.186   4.278  -0.005 -0.6280 -1.0696  1.0994
 1418SOL     OW 4845   2.758   1.657   0.060 -0.0043 -0.2593 -0.1381
 1418SOL    HW1 4846   2.755   1.563   0.038 -1.6622 -0.4073  0.6015
 1418SOL    HW2 4847   2.669   1.679   0.084  0.6500  1.1885  1.1173
 1419SOL     OW 4848   4.446   5.337   0.086 -0.5200  0.1257  0.7054
 1419SOL    HW1 4849   4.428   5.412   0.030 -0.6368 -0.4381 -0.0191
 1419SOL    HW2 4850   4.462   5.375   0.173  0.4973  1.0693  0.1209
 1420SOL     OW 4851   3.417   4.987   0.705 -0.9580  0.2766 -0.1958
 1420SOL    HW1 4852   3.364   5.057   0.667 -0.4124  1.1948  0.7016
 1420SOL    HW2 4853   3.355   4.933   0.754 -1.5503 -0.5003 -1.7006
 1421SOL     OW 4854   4.143   0.287   2.357 -0.2145 -0.0951  0.6014
 1421SOL    HW1 4855   4.125   0.381   2.356 -0.9166 -0.1927 -1.3748
 1421SOL    HW2 4856   4.149   0.264   2.450 -0.6821  1.7777  1.1322
 1422SOL     OW 4857   2.037   4.652   1.729  1.1332  0.5365 -0.4235
 1422SOL    HW1 4858   1.996   4.570   1.701  1.0260  0.3004  0.4076
 1422SOL    HW2 4859   1.990   4.720   1.679  0.3887  0.1904 -0.2156
 1423SOL     OW 4860   3.665   0.090   0.210 -0.7200 -0.0794  0.3521
 1423SOL    HW1 4861   3.729   0.130   0.151 -2.0376  0.6037 -0.6499
 1423SOL    HW2 4862   3.696  -0.000   0.220  1.0832  0.5539  0.9084
 1424SOL     OW 4863   2.882   0.735   2.943  0.2918 -0.0066 -0.3173
 1424SOL    HW1 4864   2.875   0.650   2.986  1.9857  0.5863  1.2903
 1424SOL    HW2 4865   2.917   0.715   2.856 -0.1458 -1.0027 -0.2760
 1425SOL     OW 4866   3.196   0.333   2.310 -0.2663 -0.7320 -0.3077
 1425SOL    HW1 4867   3.281   0.297   2.284 -0.0620  0.4338 -1.3814
 1425SOL    HW2 4868   3.217   0.416   2.353 -0.8855  0.7132 -2.6036
 1426SOL     OW 4869   1.883   1.133   3.526  0.1561  0.4233 -0.0655
 1426SOL    HW1 4870   1.947   1.078   3.480 -0.2520  0.1428 -0.3082
 1426SOL    HW2 4871   1.842   1.185   3.456 -1.1977 -0.7472 -0.1836
 1427SOL     OW 4872   3.005   1.973   1.714  0.0267 -0.1935  0.0664
 1427SOL    HW1 4873   3.002   1.953   1.621  1.2614 -1.0712  0.1785
 1427SOL    HW2 4874   2.916   1.961   1.745 -0.6196  1.1484 -1.1856
 1428SOL     OW 4875   3.283   0.320   2.683  0.5489 -0.2351  0.1814
 1428SOL    HW1 4876   3.332   0.344   2.605  0.6465  2.0691  0.8822
 1428SOL    HW2 4877   3.320   0.375   2.752 -1.0541 -0.5594  1.3562
 1429SOL     OW 4878   0.728   1.507   0.546  0.3434  0.0216 -0.0532
 1429SOL    HW1 4879   0.666   1.434   0.549  1.0340 -0.6794 -1.6062
 1429SOL    HW2 4880   0.673   1.585   0.547 -0.4816 -0.5514  0.1630
 1430SOL     OW 4881   3.544   1.508   0.379 -0.1640 -0.3782 -0.5285
 1430SOL    HW1 4882   3.582   1.441   0.323 -0.9735 -2.0859  0.8884
 1430SOL    HW2 4883   3.589   1.499   0.462  0.3412  1.4851 -0.5567
 1431SOL     OW 4884   3.845   5.062   2.196  0.2032 -0.2102 -0.1939
 1431SOL    HW1 4885   3.822   5.073   2.288  0.0215 -2.4383  0.0901
 1431SOL    HW2 4886   3.844   5.150   2.160 -1.1420  0.5714  1.6053
 1432SOL     OW 4887   2.510   1.437   2.294 -0.4881 -0.2975 -0.6326
 1432SOL    HW1 4888   2.512   1.429   2.389 -0.5153 -0.7756 -0.6690
 1432SOL    HW2 4889   2.589   1.487   2.272 -1.6204  1.7672 -0.1976
 1433SOL     OW 4890   4.143   0.698   3.211  0.9753 -0.4136 -0.2108
 1433SOL    HW1 4891   4.134   0.642   3.288 -0.0341 -2.7368 -1.8790
 1433SOL    HW2 4892   4.078   0.767   3.223  1.4049 -0.2400  1.3453
 1434SOL     OW 4893   3.262   0.102   1.976 -0.6305 -0.2500 -0.4255
 1434SOL    HW1 4894   3.307   0.173   2.021 -0.2107 -0.2139 -0.8885
 1434SOL    HW2 4895   3.235   0.140   1.892 -0.2359 -0.6870 -0.7544
 1435SOL     OW 4896   4.600   4.868   2.406 -0.0264  0.0113  0.2373
 1435SOL    HW1 4897   4.594   4.878   2.501 -0.6083  2.4077  0.0183
 1435SOL    HW2 4898   4.531   4.805   2.384  0.4044 -0.9145  1.4149
 1436SOL     OW 4899   1.422   1.726   2.322  0.3857 -0.0189 -0.7790
 1436SOL    HW1 4900   1.445   1.633   2.321 -0.5766 -0.2625 -1.1483
 1436SOL    HW2 4901   1.327   1.727   2.318 -0.0384  0.8627  3.9057
 1437SOL     OW 4902   3.188   0.216   1.711 -0.2122 -0.1072 -0.2683
 1437SOL    HW1 4903   3.156   0.300   1.744 -1.3443  0.2254 -2.0380
 1437SOL    HW2 4904   3.127   0.193   1.641  1.9387 -0.7992 -2.0478
 1438SOL     OW 4905   3.634   0.386   2.225  0.2638  0.8470  0.3689
 1438SOL    HW1 4906   3.615   0.478   2.205  0.1896  0.7979  0.2138
 1438SOL    HW2 4907   3.729   0.381   2.228  0.2631  1.1718  1.5006
 1439SOL     OW 4908   2.110   0.132   1.981  0.1233  0.3726  0.1029
 1439SOL    HW1 4909   2.166   0.062   1.945  1.2161  0.8649  0.8012
 1439SOL    HW2 4910   2.023   0.093   1.983  0.3684 -0.3237 -1.2822
 1440SOL     OW 4911   2.613   0.885   3.111  0.1571  0.3222 -0.3048
 1440SOL    HW1 4912   2.556   0.952   3.149 -2.4224 -0.7718 -1.9332
 1440SOL    HW2 4913   2.670   0.934   3.051 -1.6463  1.1893 -1.4315
 1441SOL     OW 4914   2.045   0.930   0.143  0.3017 -0.2041 -0.2256
 1441SOL    HW1 4915   2.020   0.847   0.101  0.8330 -0.1692 -0.6219
 1441SOL    HW2 4916   2.039   0.912   0.237  1.3715 -1.0002 -0.2926
 1442SOL     OW 4917   3.928   0.255   2.192 -0.5757 -0.3222 -0.0411
 1442SOL    HW1 4918   3.932   0.334   2.138 -0.7855 -0.7236 -0.6525
 1442SOL    HW2 4919   4.004   0.262   2.250 -1.3872  1.0391  0.9276
 1443SOL     OW 4920   3.581   1.112   3.378  0.1345 -0.2807  0.3146
 1443SOL    HW1 4921   3.647   1.122   3.310  1.0262  1.2583  1.3516
 1443SOL    HW2 4922   3.498   1.104   3.330  0.3903  3.2356 -1.0165
 1444SOL     OW 4923   2.961   0.501   0.264 -0.2581  0.2865 -0.3634
 1444SOL    HW1 4924   2.910   0.458   0.195 -0.7842 -1.9724  1.3534
 1444SOL    HW2 4925   3.039   0.447   0.274 -0.9213 -0.3329  1.8440
 1445SOL     OW 4926   2.909   1.140   2.720 -0.7014 -0.1524 -0.2656
 1445SOL    HW1 4927   2.942   1.129   2.631 -0.3369 -0.9850 -0.0330
 1445SOL    HW2 4928   2.856   1.220   2.716  0.8640  0.9295 -0.7938
 1446SOL     OW 4929   2.504   0.231   0.200  0.0101 -0.1603  0.1898
 1446SOL    HW1 4930   2.577   0.219   0.261  1.6368  1.6937 -1.2419
 1446SOL    HW2 4931   2.537   0.196   0.117 -0.4809  1.2341 -0.6293
 1447SOL     OW 4932   1.483   2.103   3.060 -0.3192 -0.0813 -0.2529
 1447SOL    HW1 4933   1.424   2.053   3.004  0.6091  0.4021 -1.6966
 1447SOL    HW2 4934   1.459   2.077   3.149 -0.4475 -2.4300 -0.9229
 1448SOL     OW 4935   1.132   0.959   0.386 -0.4548  0.2828  0.6005
 1448SOL    HW1 4936   1.090   0.958   0.472  0.3398  0.5597  0.9960
 1448SOL    HW2 4937   1.167   1.048   0.377 -2.1722  0.8809 -0.8196
 1449SOL     OW 4938   3.762   0.226   3.541 -0.2594  0.0457  0.0544
 1449SOL    HW1 4939   3.669   0.213   3.522  0.1336  0.1164 -2.1539
 1449SOL    HW2 4940   3.777   0.319   3.522  0.0105  0.3491  1.6618
 1450SOL     OW 4941   1.919   0.596   3.167 -1.2191 -0.4335  0.0574
 1450SOL    HW1 4942   1.980   0.523   3.155 -1.6241 -1.0032  1.3050
 1450SOL    HW2 4943   1.850   0.560   3.222 -2.2325  0.4654 -0.5892
 1451SOL     OW 4944   3.908   1.573   1.920  0.4604  0.0871 -0.0384
 1451SOL    HW1 4945   3.828   1.610   1.955  1.8219  1.7306  1.5245
 1451SOL    HW2 4946   3.908   1.598   1.827 -1.0300 -0.3903 -0.1990
 1452SOL     OW 4947   3.509   0.952   2.155  0.5142 -0.0969 -0.2025
 1452SOL    HW1 4948   3.604   0.947   2.144  0.6070  2.4337 -1.4152
 1452SOL    HW2 4949   3.474   0.888   2.093  1.3352 -2.8015  1.9005
 1453SOL     OW 4950   4.481   1.012   3.103 -0.1709 -0.6066  0.0771
 1453SOL    HW1 4951   4.410   1.036   3.163  1.1635  0.9291  1.1266
 1453SOL    HW2 4952   4.445   0.940   3.051 -1.7343 -1.3410  2.0443
 1454SOL     OW 4953   2.064   1.721   2.504 -0.2757 -0.2009  0.3239
 1454SOL    HW1 4954   2.075   1.768   2.586  0.8016 -1.4224  0.9066
 1454SOL    HW2 4955   2.153   1.697   2.477 -0.7503 -1.4292 -0.2273
 1455SOL     OW 4956   0.893   1.226   2.479 -0.0133  0.0145 -0.0536
 1455SOL    HW1 4957   0.892   1.268   2.393  1.6034  0.9350  0.3326
 1455SOL    HW2 4958   0.939   1.288   2.536  0.1011 -1.1311  1.1712
 1456SOL     OW 4959   3.042   0.986   1.690  1.0493 -0.2270 -0.3667
 1456SOL    HW1 4960   3.022   1.064   1.639  0.0335  0.2353  0.6931
 1456SOL    HW2 4961   3.136   0.991   1.706  0.8808  1.1512  0.2596
 1457SOL     OW 4962   1.779   1.301   3.325  0.1151  0.2959  0.0380
 1457SOL    HW1 4963   1.816   1.343   3.248 -0.7691  1.4917  0.2217
 1457SOL    HW2 4964   1.687   1.284   3.302  0.7840 -3.2216 -0.6696
 1458SOL     OW 4965   3.277   5.354   0.641 -0.1798  0.3313  0.3579
 1458SOL    HW1 4966   3.257   5.262   0.623 -0.6938  0.5280 -0.1162
 1458SOL    HW2 4967   3.365   5.367   0.606  0.3683 -0.2621  1.4557
 1459SOL     OW 4968   2.576   1.161   2.228  0.5297 -0.2788 -0.5185
 1459SOL    HW1 4969   2.616   1.180   2.143 -0.5421  0.8493 -0.7954
 1459SOL    HW2 4970   2.545   1.246   2.260 -0.0817 -0.8599  0.4906
 1460SOL     OW 4971   2.208   4.509   1.248  0.2198 -0.5079  0.3529
 1460SOL    HW1 4972   2.263   4.587   1.239  1.5112 -1.5179 -1.1486
 1460SOL    HW2 4973   2.207   4.491   1.342  0.8346  0.6665  0.6108
 1461SOL     OW 4974   0.547   2.341   1.303  0.1265  0.2600 -0.2252
 1461SOL    HW1 4975   0.567   2.337   1.397 -0.3728  1.1309 -0.0688
 1461SOL    HW2 4976   0.631   2.362   1.262 -0.1197  2.6948  0.3104
 1462SOL     OW 4977   2.386   4.782   3.155 -0.3640 -0.1007  0.1081
 1462SOL    HW1 4978   2.393   4.705   3.212  0.4638  0.3829  0.6650
 1462SOL    HW2 4979   2.427   4.755   3.073  1.4581  0.2646  0.8529
 1463SOL     OW 4980   1.430   4.128   2.674 -0.8578  0.5538  0.1783
 1463SOL    HW1 4981   1.454   4.056   2.733 -0.2770 -0.0299 -0.7441
 1463SOL    HW2 4982   1.396   4.084   2.596 -0.6433  1.2888 -0.3406
 1464SOL     OW 4983   3.412   0.110   1.445 -0.1463  0.4951 -0.1282
 1464SOL    HW1 4984   3.474   0.046   1.410 -0.7522  1.3909 -3.1162
 1464SOL    HW2 4985   3.467   0.172   1.493  0.9809 -0.0818 -0.6322
 1465SOL     OW 4986   3.267   0.543   2.077 -0.2865 -0.0474  0.0757
 1465SOL    HW1 4987   3.227   0.521   1.993  0.0844 -1.3101  0.2194
 1465SOL    HW2 4988   3.192   0.556   2.136 -0.5483  0.8335 -0.4284
 1466SOL     OW 4989   3.701   1.378   2.718  0.9165 -1.0352  0.3201
 1466SOL    HW1 4990   3.660   1.354   2.635 -0.4781  0.0328  0.6575
 1466SOL    HW2 4991   3.756   1.303   2.740  1.3192 -1.3425 -1.5503
 1467SOL     OW 4992   5.200   0.785   3.037  0.2965 -0.1940  0.2159
 1467SOL    HW1 4993   5.145   0.772   2.960  2.2536  0.0527 -1.3196
 1467SOL    HW2 4994   5.141   0.820   3.104 -1.2621  0.6360 -1.5120
 1468SOL     OW 4995   3.459   1.641   2.164 -0.1895 -0.2910 -0.8443
 1468SOL    HW1 4996   3.391   1.582   2.128  0.7880 -2.8907  1.2318
 1468SOL    HW2 4997   3.434   1.654   2.255  1.6076 -0.6450 -0.2537
 1469SOL     OW 4998   3.197   2.378   2.215  0.5739  0.1834 -0.3543
 1469SOL    HW1 4999   3.190   2.284   2.233  1.3979  0.2660  0.5272
 1469SOL    HW2 5000   3.194   2.419   2.302 -0.8149  1.0658 -0.7936
 1470SOL     OW 5001   3.018   0.227   2.964 -0.4345  0.1838  0.3667
 1470SOL    HW1 5002   3.057   0.176   3.035 -0.7970 -0.5106  0.0681
 1470SOL    HW2 5003   3.085   0.293   2.943  1.6323 -2.3472 -1.6576
 1471SOL     OW 5004   2.441   5.013   2.824  0.2088  0.1186 -0.4598
 1471SOL    HW1 5005   2.361   5.030   2.875  1.0913  1.3879  0.5733
 1471SOL    HW2 5006   2.427   5.059   2.741  0.1923  1.0432  0.0450
 1472SOL     OW 5007   3.083   4.995   0.305 -0.1323  0.5775  0.0638
 1472SOL    HW1 5008   3.033   4.915   0.290 -0.8377  0.8351  0.9302
 1472SOL    HW2 5009   3.030   5.065   0.267  2.1385  0.3587 -4.0407
 1473SOL     OW 5010   1.000   0.860   2.066  0.2593  0.9116 -0.8368
 1473SOL    HW1 5011   0.944   0.855   1.989 -1.5547  1.1474  0.3907
 1473SOL    HW2 5012   0.962   0.929   2.119  0.6316 -0.1200  0.8637
 1474SOL     OW 5013   1.667   2.050   2.653  0.1287  0.2438 -0.5791
 1474SOL    HW1 5014   1.698   1.993   2.582 -0.9487  0.2077 -1.0347
 1474SOL    HW2 5015   1.634   1.990   2.720  0.8596  0.2895 -0.1598
 1475SOL     OW 5016   1.950   2.122   2.840 -0.3971  0.2227  0.2517
 1475SOL    HW1 5017   1.889   2.099   2.910 -0.4686  2.0166  0.8192
 1475SOL    HW2 5018   1.894   2.154   2.770 -0.1437  2.8205  1.1391
 1476SOL     OW 5019   2.427   1.765   1.667 -0.2016  0.0882  0.2450
 1476SOL    HW1 5020   2.385   1.781   1.752 -0.2932  1.3942 -0.0282
 1476SOL    HW2 5021   2.394   1.835   1.611  1.5202  0.5152 -0.2709
 1477SOL     OW 5022   2.067   5.085   2.599 -0.2973  0.3949  0.1995
 1477SOL    HW1 5023   1.991   5.031   2.576  0.1332 -1.0308  1.9047
 1477SOL    HW2 5024   2.030   5.160   2.645 -0.7557  0.4422 -0.2317
 1478SOL     OW 5025   1.249   5.209   2.366  0.7475 -0.0570  0.5475
 1478SOL    HW1 5026   1.339   5.202   2.332  0.4021  0.4353 -0.5054
 1478SOL    HW2 5027   1.254   5.277   2.433  1.0626  0.3175  0.1500
 1479SOL     OW 5028   3.515   5.108   1.912 -0.0312  0.4637 -0.6288
 1479SOL    HW1 5029   3.592   5.053   1.910  0.1828  0.5226  2.0766
 1479SOL    HW2 5030   3.511   5.148   1.825  2.6936  0.0999 -0.9983
 1480SOL     OW 5031   1.591   1.820   2.786 -0.0994  0.2383 -0.3683
 1480SOL    HW1 5032   1.612   1.816   2.880 -1.4621 -1.6660 -0.0912
 1480SOL    HW2 5033   1.579   1.728   2.761 -0.6140  0.7853 -2.2211
 1481SOL     OW 5034   1.715   1.281   0.311  0.2881  0.4329  0.0582
 1481SOL    HW1 5035   1.673   1.275   0.225 -1.1872 -0.3504  0.7969
 1481SOL    HW2 5036   1.803   1.248   0.297  0.1349  0.5038 -1.2027
 1482SOL     OW 5037   2.798   2.243   3.053 -0.1514  0.0523 -0.0000
 1482SOL    HW1 5038   2.876   2.228   3.107 -0.9931  0.7840  1.5009
 1482SOL    HW2 5039   2.801   2.336   3.032 -1.2597  0.3882  1.1928
 1483SOL     OW 5040   2.265   1.146   1.500 -0.4478  0.2667  0.1893
 1483SOL    HW1 5041   2.283   1.079   1.434 -0.0994  1.3290 -0.8490
 1483SOL    HW2 5042   2.282   1.229   1.454 -1.3078  1.0776  1.2818
 1484SOL     OW 5043   1.321   1.419   2.930  0.2307  0.2732  0.2382
 1484SOL    HW1 5044   1.285   1.494   2.882 -1.0905  0.0995  0.9345
 1484SOL    HW2 5045   1.389   1.457   2.986  0.0028  0.8552  0.1225
 1485SOL     OW 5046   2.169   1.576   3.368 -0.0958  0.1430  0.1110
 1485SOL    HW1 5047   2.139   1.486   3.383  0.3604  0.0062  0.2194
 1485SOL    HW2 5048   2.165   1.617   3.455 -0.0690  0.1518  0.1081
 1486SOL     OW 5049   3.024   0.123   2.279 -0.7952  0.3148  0.4638
 1486SOL    HW1 5050   3.082   0.199   2.281  0.9641 -0.8525 -1.5083
 1486SOL    HW2 5051   3.068   0.059   2.335 -0.8907 -0.1169  0.0436
 1487SOL     OW 5052   4.064   0.907   3.457  0.5046  0.0287 -0.5057
 1487SOL    HW1 5053   4.019   0.846   3.516 -0.7100  0.8270 -0.5850
 1487SOL    HW2 5054   4.004   0.919   3.384  1.4892 -0.0114 -1.3428
 1488SOL     OW 5055   2.593   1.579   2.784 -0.1091 -0.5518  0.0152
 1488SOL    HW1 5056   2.548   1.653   2.743 -0.7857 -0.4371  0.9188
 1488SOL    HW2 5057   2.613   1.610   2.873  2.5207 -0.2992 -0.5802
 1489SOL     OW 5058   2.009   1.609   2.267  0.4456  0.4349  0.1757
 1489SOL    HW1 5059   2.087   1.557   2.245  0.5024  0.4612  0.3158
 1489SOL    HW2 5060   2.040   1.670   2.334  0.3155  0.4764  0.1969
 1490SOL     OW 5061   3.394   5.290   0.136  1.2216 -0.0034  0.2615
 1490SOL    HW1 5062   3.400   5.351   0.210 -3.7967 -0.1361  1.1860
 1490SOL    HW2 5063   3.324   5.327   0.081  0.1257 -3.2700 -0.7589
 1491SOL     OW 5064   3.906   1.726   2.872 -0.1629  0.2015 -0.1595
 1491SOL    HW1 5065   3.844   1.794   2.846 -0.9344 -0.0387  0.9604
 1491SOL    HW2 5066   3.894   1.656   2.807 -1.3038  0.0389  0.1984
 1492SOL     OW 5067   2.612   0.855   3.535  0.0414  0.4621 -0.6096
 1492SOL    HW1 5068   2.667   0.803   3.476  0.9979  1.4288 -0.5880
 1492SOL    HW2 5069   2.541   0.886   3.478  0.5843  0.8260 -1.1003
 1493SOL     OW 5070   3.024   1.095   2.218  0.6775  0.0346 -0.1841
 1493SOL    HW1 5071   3.018   1.182   2.177  1.4534 -0.6020 -1.7143
 1493SOL    HW2 5072   2.956   1.043   2.175 -0.1702 -0.0064  1.1307
 1494SOL     OW 5073   0.142   2.208   2.669 -0.2360  0.0204  0.2367
 1494SOL    HW1 5074   0.088   2.203   2.748 -2.8624 -2.3426 -1.5037
 1494SOL    HW2 5075   0.181   2.121   2.662  0.8911  0.5652 -0.5045
 1495SOL     OW 5076   4.513   2.008   3.247 -0.7116  0.1453 -0.5430
 1495SOL    HW1 5077   4.425   1.980   3.222 -0.3716 -0.1119 -1.5185
 1495SOL    HW2 5078   4.565   1.998   3.167  0.3079 -0.1465  0.1285
 1496SOL     OW 5079   4.688   0.781   2.199  0.3775 -0.1269  0.3008
 1496SOL    HW1 5080   4.666   0.724   2.125  1.1835 -0.1072  0.0418
 1496SOL    HW2 5081   4.639   0.861   2.183 -0.2100 -0.4755  0.2973
 1497SOL     OW 5082   2.260   4.227   2.708  0.6011  0.2903  0.0121
 1497SOL    HW1 5083   2.198   4.294   2.736  0.2368  0.8079 -1.8791
 1497SOL    HW2 5084   2.346   4.262   2.732  0.2633 -0.0411  1.8693
 1498SOL     OW 5085   3.341   1.702   1.711 -0.3763  0.3486  0.2669
 1498SOL    HW1 5086   3.364   1.794   1.699  0.2419 -0.0611 -2.1024
 1498SOL    HW2 5087   3.384   1.656   1.639  0.9905 -2.1195  2.4437
 1499SOL     OW 5088   1.521   0.987   0.602  0.4904  0.1083 -0.2584
 1499SOL    HW1 5089   1.582   1.057   0.625  0.9576 -0.2903 -0.2789
 1499SOL    HW2 5090   1.569   0.933   0.539  0.3694 -0.5993  0.2435
 1500SOL     OW 5091   3.226   5.021   3.379  0.3593 -0.2479 -0.3088
 1500SOL    HW1 5092   3.167   4.946   3.369  1.8611 -1.5773  0.3111
 1500SOL    HW2 5093   3.195   5.085   3.316 -1.3758 -1.1349 -0.3990
 1501SOL     OW 5094   2.950   1.496   2.766 -0.4620 -0.0374 -0.0061
 1501SOL    HW1 5095   2.908   1.471   2.848  1.4816  1.2277  1.4920
 1501SOL    HW2 5096   2.949   1.592   2.767 -0.6117 -0.0005 -1.5875
 1502SOL     OW 5097   1.897   1.164   2.725 -0.8186  0.2650 -0.0266
 1502SOL    HW1 5098   1.949   1.091   2.758 -1.1197  0.3847  0.7307
 1502SOL    HW2 5099   1.947   1.242   2.748 -1.4505  0.3969  0.9582
 1503SOL     OW 5100   3.666   1.043   2.890 -0.4819  0.2452  0.5976
 1503SOL    HW1 5101   3.622   0.992   2.958 -0.4436  0.2243  0.6067
 1503SOL    HW2 5102   3.605   1.045   2.817 -0.5376  0.2958  0.6450
 1504SOL     OW 5103   1.846   0.295   2.962 -0.5732 -0.6988 -0.2297
 1504SOL    HW1 5104   1.763   0.329   2.995 -0.3756 -1.4708  1.1807
 1504SOL    HW2 5105   1.823   0.210   2.923 -0.3349 -1.4832  1.2351
 1505SOL     OW 5106   2.519   0.249   2.465  0.3549  0.6774  0.1734
 1505SOL    HW1 5107   2.429   0.280   2.479  0.4526  0.0768  2.5119
 1505SOL    HW2 5108   2.558   0.251   2.553  2.3051 -0.0894 -0.6430
 1506SOL     OW 5109   2.615   1.150   1.883  0.2278 -0.3091 -0.0617
 1506SOL    HW1 5110   2.669   1.227   1.868  0.1308 -0.3259 -0.4887
 1506SOL    HW2 5111   2.529   1.186   1.906  0.0073 -0.2914 -0.9009
 1507SOL     OW 5112   3.146   4.629   0.160 -0.4729 -0.2177  0.3622
 1507SOL    HW1 5113   3.202   4.642   0.237 -0.5091 -0.5116  0.4371
 1507SOL    HW2 5114   3.198   4.665   0.087 -0.2092 -0.4391  0.4386
 1508SOL     OW 5115   2.364   2.021   2.520  0.0579  0.5967  0.1873
 1508SOL    HW1 5116   2.306   2.070   2.578  1.5153  1.3447  1.0884
 1508SOL    HW2 5117   2.332   2.041   2.431 -1.8255 -0.0816  0.6602
 1509SOL     OW 5118   0.896   0.344   0.207  0.1330 -0.2404 -0.4395
 1509SOL    HW1 5119   0.924   0.254   0.227  1.7352  0.1595 -0.7242
 1509SOL    HW2 5120   0.916   0.355   0.114 -0.1626  0.3713 -0.4308
 1510SOL     OW 5121   2.171   4.854   1.002 -0.5864 -0.3282 -0.0270
 1510SOL    HW1 5122   2.120   4.932   0.983 -0.2266 -0.5372 -2.1512
 1510SOL    HW2 5123   2.106   4.789   1.031 -1.6861 -0.7044 -3.0197
 1511SOL     OW 5124   2.058   4.593   2.400  0.2378 -0.5816 -0.5528
 1511SOL    HW1 5125   2.035   4.587   2.493 -0.8851 -1.9409 -0.8806
 1511SOL    HW2 5126   1.988   4.545   2.355  0.9218 -0.2066 -2.0792
 1512SOL     OW 5127   3.732   0.844   0.138 -0.2174 -0.1289  0.4643
 1512SOL    HW1 5128   3.783   0.918   0.102 -1.3667  0.1518 -0.6522
 1512SOL    HW2 5129   3.647   0.852   0.096 -0.6591 -1.5582  1.0642
 1513SOL     OW 5130   2.479   5.192   2.143  0.5517  0.3022 -0.0584
 1513SOL    HW1 5131   2.495   5.097   2.143  0.5203  0.2975 -0.2142
 1513SOL    HW2 5132   2.566   5.231   2.136  0.5486  0.2819 -0.2196
 1514SOL     OW 5133   2.041   1.850   2.732 -0.2358 -0.1703  0.0774
 1514SOL    HW1 5134   2.021   1.943   2.718 -1.8198 -0.4201  0.5014
 1514SOL    HW2 5135   1.956   1.807   2.734  0.2246 -1.1730  3.1884
 1515SOL     OW 5136   1.919   2.361   2.448 -0.3146  0.0545  0.1182
 1515SOL    HW1 5137   1.896   2.453   2.434 -1.7747 -0.3214 -0.0967
 1515SOL    HW2 5138   1.894   2.317   2.367 -1.2900 -0.8086  0.8633
 1516SOL     OW 5139   3.744   1.381   2.236 -0.2135  0.0286 -0.1732
 1516SOL    HW1 5140   3.697   1.364   2.155 -0.8734 -0.1295  0.2344
 1516SOL    HW2 5141   3.783   1.296   2.260  1.5176  0.4643 -1.2567
 1517SOL     OW 5142   2.745   0.402   2.353  1.0847  0.1741 -0.3588
 1517SOL    HW1 5143   2.759   0.460   2.428 -1.2237  0.6482 -0.2230
 1517SOL    HW2 5144   2.704   0.458   2.287 -1.0066 -1.1988 -0.3099
 1518SOL     OW 5145   1.944   1.267   2.256  0.4071 -0.1122 -0.2484
 1518SOL    HW1 5146   1.916   1.320   2.331  0.3608  1.6774 -1.4530
 1518SOL    HW2 5147   1.916   1.317   2.180  2.6950 -0.5560 -1.4879
 1519SOL     OW 5148   2.295   0.074   0.289  0.4281 -0.2330 -0.7392
 1519SOL    HW1 5149   2.377   0.111   0.254  0.1135  0.6720 -0.5315
 1519SOL    HW2 5150   2.318  -0.016   0.313  1.3857  0.0460 -0.5855
 1520SOL     OW 5151   3.743   0.049   3.155 -0.5177 -0.2862  1.3700
 1520SOL    HW1 5152   3.716   0.114   3.089  0.1829 -3.0002 -1.8672
 1520SOL    HW2 5153   3.668  -0.010   3.162 -0.1387 -0.6886  2.1028
 1521SOL     OW 5154   2.354   0.341   3.031  0.0927 -0.4235 -0.2756
 1521SOL    HW1 5155   2.263   0.368   3.021  0.8031  3.1787  1.3679
 1521SOL    HW2 5156   2.368   0.276   2.962 -2.7945  1.3209 -2.7383
 1522SOL     OW 5157   2.704   5.094   0.496 -0.2202  0.2216 -0.1804
 1522SOL    HW1 5158   2.615   5.076   0.467 -0.1864  0.4693 -0.4473
 1522SOL    HW2 5159   2.707   5.189   0.508 -0.3314  0.0842  0.9796
 1523SOL     OW 5160   2.854   0.957   2.058  0.2392  0.0810  0.6539
 1523SOL    HW1 5161   2.796   0.991   1.990  1.2222 -0.8191 -0.6803
 1523SOL    HW2 5162   2.810   0.879   2.091  1.2894 -1.4768 -1.4073
 1524SOL     OW 5163   1.140   1.843   2.328 -0.7693  0.1920 -0.8358
 1524SOL    HW1 5164   1.091   1.918   2.362  1.0721  1.0389  0.1251
 1524SOL    HW2 5165   1.172   1.873   2.242  2.9306  2.0847  0.9453
 1525SOL     OW 5166   3.486   0.925   3.064 -0.1875  0.0957  0.0450
 1525SOL    HW1 5167   3.446   1.008   3.090  1.6081  0.6396  1.2760
 1525SOL    HW2 5168   3.417   0.860   3.076 -1.1405  1.1870  0.6283
 1526SOL     OW 5169   3.742   0.713   1.907 -0.2328  0.1747 -0.0917
 1526SOL    HW1 5170   3.674   0.664   1.860  0.7991  0.3968 -1.9227
 1526SOL    HW2 5171   3.824   0.671   1.881  0.3813 -0.1142  2.1020
 1527SOL     OW 5172   3.302   1.385   2.369 -0.2354  0.4774 -0.4531
 1527SOL    HW1 5173   3.219   1.395   2.416 -0.2247 -0.6761 -0.1667
 1527SOL    HW2 5174   3.279   1.392   2.277 -0.9539 -1.6043 -0.4705
 1528SOL     OW 5175   2.743   0.965   2.893  0.2319 -0.0701  0.0638
 1528SOL    HW1 5176   2.779   1.024   2.827  1.1568 -0.5009  0.1623
 1528SOL    HW2 5177   2.809   0.896   2.901  0.4986  0.3540  1.9730
 1529SOL     OW 5178   1.221   0.804   2.947 -0.0131  0.7681 -0.4169
 1529SOL    HW1 5179   1.255   0.851   2.870 -1.3445  0.8403 -0.9857
 1529SOL    HW2 5180   1.127   0.796   2.930 -0.0626 -0.6604  0.4529
 1530SOL     OW 5181   3.670   1.449   0.610  0.1607  0.1564  0.7371
 1530SOL    HW1 5182   3.717   1.367   0.595 -0.2925  0.1585 -0.8925
 1530SOL    HW2 5183   3.715   1.490   0.684  1.4261 -0.7833  0.5111
 1531SOL     OW 5184   1.564   0.962   3.261  0.2307  0.5253 -0.2126
 1531SOL    HW1 5185   1.471   0.943   3.250  0.2462  0.0578  0.4084
 1531SOL    HW2 5186   1.577   0.967   3.356  0.6049  1.7773 -0.3132
 1532SOL     OW 5187   3.765   1.148   3.157 -0.1976  0.1352  0.4900
 1532SOL    HW1 5188   3.836   1.207   3.178 -0.9423  1.3641 -0.3114
 1532SOL    HW2 5189   3.763   1.145   3.061  0.2003 -1.6821  0.4976
 1533SOL     OW 5190   2.503   0.274   0.779 -0.4007 -0.0572 -0.1136
 1533SOL    HW1 5191   2.497   0.369   0.772 -2.2115 -0.2555 -1.8416
 1533SOL    HW2 5192   2.597   0.256   0.773 -0.1691  1.4874 -1.8499
 1534SOL     OW 5193   3.418   0.745   2.016 -0.5289  0.3634 -0.2606
 1534SOL    HW1 5194   3.339   0.704   2.051 -0.1491  0.2351  0.4502
 1534SOL    HW2 5195   3.473   0.672   1.988 -0.1196  0.4065  0.4243
 1535SOL     OW 5196   4.218   1.157   0.152 -0.4710  0.1208 -0.2716
 1535SOL    HW1 5197   4.277   1.144   0.078  0.3772 -0.4392  0.4779
 1535SOL    HW2 5198   4.138   1.193   0.113  0.0958  0.2099 -1.3994
 1536SOL     OW 5199   1.929   0.319   0.007  0.1688 -0.1361 -0.0800
 1536SOL    HW1 5200   1.946   0.282  -0.079 -0.1177  0.7463 -0.5267
 1536SOL    HW2 5201   1.999   0.285   0.063 -1.0464 -2.7391 -0.0276
 1537SOL     OW 5202   1.786   2.040   2.065 -0.2401 -0.1556 -0.1435
 1537SOL    HW1 5203   1.698   2.008   2.083 -0.9342  1.4315 -0.6075
 1537SOL    HW2 5204   1.839   1.960   2.058 -1.7017 -1.1528 -0.2672
 1538SOL     OW 5205   2.125   1.022   1.759 -0.1778 -0.4406  0.1147
 1538SOL    HW1 5206   2.123   0.957   1.689  0.2862 -0.0980 -0.2201
 1538SOL    HW2 5207   2.199   1.078   1.738 -2.4978  2.2974 -1.4978
 1539SOL     OW 5208   3.133   4.661   2.916 -0.6094 -0.3315 -0.6952
 1539SOL    HW1 5209   3.194   4.592   2.893  1.0802  0.4823  1.0439
 1539SOL    HW2 5210   3.071   4.619   2.976 -1.0205 -0.8517 -1.4636
 1540SOL     OW 5211   2.305   1.040   2.194 -0.2567  0.2195  0.1560
 1540SOL    HW1 5212   2.399   1.056   2.198  0.1539 -1.7971 -0.0253
 1540SOL    HW2 5213   2.281   1.021   2.285 -0.5661  1.0416  0.2514
 1541SOL     OW 5214   4.332   5.161   2.670  0.0708  0.0435 -0.6301
 1541SOL    HW1 5215   4.239   5.150   2.691 -0.0992 -0.9210 -1.7572
 1541SOL    HW2 5216   4.332   5.207   2.586  0.5880 -0.4621 -0.9124
 1542SOL     OW 5217   1.316   0.301   1.255 -0.0567 -0.8261 -0.1983
 1542SOL    HW1 5218   1.352   0.377   1.210 -0.7055  0.0120  0.6441
 1542SOL    HW2 5219   1.390   0.241   1.265 -0.1102 -1.5602 -3.2945
 1543SOL     OW 5220   2.972   1.951   2.389  0.2014  0.5901 -0.0024
 1543SOL    HW1 5221   2.939   2.014   2.453  0.2622  0.4562  0.1613
 1543SOL    HW2 5222   2.912   1.959   2.314  1.1197  1.9631 -0.6368
 1544SOL     OW 5223   0.953   2.405   3.195 -0.3171 -0.9518 -0.1416
 1544SOL    HW1 5224   0.915   2.322   3.167  0.8512 -1.4072 -0.4384
 1544SOL    HW2 5225   0.889   2.441   3.257 -0.6954 -2.2106  0.2261
 1545SOL     OW 5226   2.208   1.453   1.118  0.0271 -0.2110 -1.0378
 1545SOL    HW1 5227   2.242   1.533   1.077 -0.2859  0.2162 -0.4847
 1545SOL    HW2 5228   2.158   1.409   1.049 -0.7535  0.6506 -1.0352
 1546SOL     OW 5229   2.463   1.525   0.857 -0.5869 -0.0420  0.1456
 1546SOL    HW1 5230   2.514   1.515   0.777  0.2995  0.7341  0.5937
 1546SOL    HW2 5231   2.395   1.588   0.834 -0.2598  0.2731  0.0325
 1547SOL     OW 5232   4.034   3.264   0.718 -0.0643 -0.5884 -0.3614
 1547SOL    HW1 5233   4.099   3.202   0.750 -1.5411 -1.1489  1.6804
 1547SOL    HW2 5234   4.019   3.238   0.627  0.9126 -1.8452 -0.1884
 1548SOL     OW 5235   1.982   2.177   0.940 -0.1533  0.2188  0.3863
 1548SOL    HW1 5236   1.983   2.254   0.883 -1.5321 -1.3865 -1.9710
 1548SOL    HW2 5237   1.910   2.193   1.000  1.5235  2.0847  2.0532
 1549SOL     OW 5238   3.564   1.471   2.934  0.2056  0.2334 -0.6805
 1549SOL    HW1 5239   3.633   1.436   2.878 -0.3812 -0.0697 -1.2246
 1549SOL    HW2 5240   3.497   1.403   2.934  0.1984  0.2308  0.4011
 1550SOL     OW 5241   2.763   2.537   2.007 -0.1637 -0.3004  0.4631
 1550SOL    HW1 5242   2.742   2.472   2.074  0.3600 -0.4189  0.5197
 1550SOL    HW2 5243   2.757   2.621   2.053 -1.9700 -0.2081  0.1051
 1551SOL     OW 5244   3.329   2.778   0.523 -0.1415 -0.2354  0.6805
 1551SOL    HW1 5245   3.320   2.698   0.472  0.3160 -0.8938  1.5862
 1551SOL    HW2 5246   3.415   2.769   0.565 -0.7908 -0.0532  2.0987
 1552SOL     OW 5247   2.762   2.570   1.581 -0.3331  0.6644  0.0617
 1552SOL    HW1 5248   2.752   2.515   1.503 -2.1650 -0.3967  0.9783
 1552SOL    HW2 5249   2.856   2.584   1.589  0.2915 -2.5882 -0.0938
 1553SOL     OW 5250   3.690   2.916   0.758 -0.2592  0.0626 -0.0994
 1553SOL    HW1 5251   3.646   2.991   0.799 -0.1521  0.3395 -0.4839
 1553SOL    HW2 5252   3.638   2.897   0.681  0.1632  0.2530 -0.4391
 1554SOL     OW 5253   2.432   3.955   0.310 -0.4195 -0.0740  0.2290
 1554SOL    HW1 5254   2.351   3.960   0.258 -0.1752  0.7958 -0.0772
 1554SOL    HW2 5255   2.490   3.899   0.259 -0.6700 -0.3420  0.2360
 1555SOL     OW 5256   2.498   3.220   1.542 -0.1482  0.2813 -0.0495
 1555SOL    HW1 5257   2.587   3.253   1.558 -0.3650 -0.1721  2.4261
 1555SOL    HW2 5258   2.444   3.299   1.540 -0.2941  0.3815  3.2238
 1556SOL     OW 5259   2.876   2.285   2.703 -0.0679  0.2882  0.5505
 1556SOL    HW1 5260   2.886   2.380   2.689 -1.4349  0.2916 -0.6515
 1556SOL    HW2 5261   2.794   2.276   2.751 -0.2064 -0.2943  0.2225
 1557SOL     OW 5262   3.178   2.350   3.511  0.3732  0.1634 -0.0601
 1557SOL    HW1 5263   3.179   2.275   3.571  0.3158  1.6377  1.8892
 1557SOL    HW2 5264   3.262   2.394   3.527  0.5440  0.3495 -1.4182
 1558SOL     OW 5265   2.751   3.339   1.573  0.1383 -0.3122 -0.1498
 1558SOL    HW1 5266   2.770   3.349   1.480 -1.6115  0.2447 -0.4765
 1558SOL    HW2 5267   2.827   3.292   1.608  1.4907  0.7342 -1.5531
 1559SOL     OW 5268   3.016   2.157   3.178 -0.3729  0.3884 -0.1508
 1559SOL    HW1 5269   2.961   2.127   3.251  0.1636 -1.4162 -0.4510
 1559SOL    HW2 5270   3.079   2.087   3.165  0.7775  1.5512 -1.1128
 1560SOL     OW 5271   1.068   1.666   1.276 -0.6200  0.1631 -0.2323
 1560SOL    HW1 5272   0.975   1.688   1.278 -1.0357 -1.4589 -0.6389
 1560SOL    HW2 5273   1.071   1.571   1.271  1.0702  0.1810 -0.2677
 1561SOL     OW 5274   3.411   3.641   0.837  0.2336  0.0291  0.3055
 1561SOL    HW1 5275   3.488   3.697   0.844  0.2520  0.1586 -0.8661
 1561SOL    HW2 5276   3.343   3.698   0.802  0.1963 -0.6219 -0.7091
 1562SOL     OW 5277   1.836   3.607   0.003 -0.0411 -0.5557  0.2895
 1562SOL    HW1 5278   1.848   3.625  -0.090 -2.6310 -1.6899 -0.3693
 1562SOL    HW2 5279   1.910   3.552   0.027 -0.2658 -1.7480 -1.5835
 1563SOL     OW 5280   3.173   4.376   0.288 -0.1081 -0.4363 -0.3171
 1563SOL    HW1 5281   3.107   4.427   0.242  1.6352  1.9171 -0.3642
 1563SOL    HW2 5282   3.130   4.350   0.370 -1.4733 -0.0859 -0.8864
 1564SOL     OW 5283   2.872   2.980   0.241 -0.2984 -0.3284 -0.1068
 1564SOL    HW1 5284   2.943   3.044   0.249 -0.4493  0.1435 -2.0779
 1564SOL    HW2 5285   2.918   2.897   0.225 -0.1321  0.1373 -2.3787
 1565SOL     OW 5286   1.461   2.529   1.901 -0.3700  0.0887  0.2374
 1565SOL    HW1 5287   1.441   2.475   1.977 -2.5381 -0.3025 -0.5299
 1565SOL    HW2 5288   1.432   2.476   1.826 -0.8080  1.5513 -0.6703
 1566SOL     OW 5289   3.858   5.358   0.965  0.0653 -0.1965 -0.4576
 1566SOL    HW1 5290   3.896   5.308   0.893  2.7270  1.8233 -0.6222
 1566SOL    HW2 5291   3.789   5.410   0.925  0.4762 -0.2342 -1.2195
 1567SOL     OW 5292   2.869   2.272   1.534 -0.1046 -0.6160 -0.0575
 1567SOL    HW1 5293   2.904   2.220   1.462 -0.3931 -0.9336  0.0291
 1567SOL    HW2 5294   2.937   2.337   1.552  0.9655 -1.9394  0.8968
 1568SOL     OW 5295   2.704   1.661   0.916 -0.2583 -0.2218 -0.4849
 1568SOL    HW1 5296   2.702   1.699   1.004  0.4869 -0.9350 -0.1477
 1568SOL    HW2 5297   2.616   1.624   0.905 -0.0677 -1.0085  0.3812
 1569SOL     OW 5298   2.922   3.011   3.426 -0.4770 -0.7736  0.9897
 1569SOL    HW1 5299   2.964   2.953   3.364  0.7859  0.2072  0.8815
 1569SOL    HW2 5300   2.991   3.034   3.489 -0.0480  2.7134 -0.4943
 1570SOL     OW 5301   3.325   2.309   1.720  0.7361 -0.4558  0.1334
 1570SOL    HW1 5302   3.251   2.349   1.675  1.8583  0.1788 -1.2167
 1570SOL    HW2 5303   3.286   2.265   1.796 -0.6857  2.2423  1.0736
 1571SOL     OW 5304   2.469   2.836   1.977  0.6634  0.6491 -0.0219
 1571SOL    HW1 5305   2.522   2.793   1.910  0.2552 -1.0035  0.6579
 1571SOL    HW2 5306   2.524   2.835   2.055  0.3089  0.5593  0.2283
 1572SOL     OW 5307   4.110   3.556   0.627 -0.1386 -0.5164  0.7859
 1572SOL    HW1 5308   4.158   3.485   0.584 -1.2624 -1.0359  0.3578
 1572SOL    HW2 5309   4.022   3.522   0.640 -0.3370  0.3144  1.8239
 1573SOL     OW 5310   3.656   4.989   0.834 -0.1563  0.3283 -0.5369
 1573SOL    HW1 5311   3.689   5.075   0.805  0.6034 -0.0596 -0.8386
 1573SOL    HW2 5312   3.566   4.986   0.802 -0.6918  1.6070  0.7214
 1574SOL     OW 5313   0.985   4.542   0.992  0.5391  0.4941 -0.3893
 1574SOL    HW1 5314   1.077   4.531   1.015  0.6393  2.6722  0.4752
 1574SOL    HW2 5315   0.978   4.507   0.904  1.9489 -0.6548 -0.0901
 1575SOL     OW 5316   3.333   1.289   0.340 -0.7333  0.2085 -0.5914
 1575SOL    HW1 5317   3.272   1.220   0.365  0.6394 -0.7418  0.2781
 1575SOL    HW2 5318   3.308   1.364   0.394 -0.2092 -0.6365  0.8851
 1576SOL     OW 5319   2.997   1.782   0.037 -0.1993 -0.4189 -0.0178
 1576SOL    HW1 5320   2.918   1.729   0.047  1.1827 -2.8374 -1.0115
 1576SOL    HW2 5321   3.011   1.822   0.123  0.2100 -4.0405  1.7616
 1577SOL     OW 5322   3.016   2.573   1.861  0.1263  0.3348  0.5322
 1577SOL    HW1 5323   3.020   2.669   1.851 -1.0946  0.4375  0.9462
 1577SOL    HW2 5324   2.936   2.557   1.910  0.7046 -0.8622  1.1305
 1578SOL     OW 5325   1.315   1.383   2.542 -0.0213 -0.4179  0.0868
 1578SOL    HW1 5326   1.227   1.404   2.572 -0.5901 -1.4202 -0.8596
 1578SOL    HW2 5327   1.343   1.309   2.597  0.0035 -0.4874 -0.0195
 1579SOL     OW 5328   3.024   3.613   0.844  0.2011 -0.0901  0.2071
 1579SOL    HW1 5329   3.106   3.663   0.841 -0.7745  1.5801  0.0757
 1579SOL    HW2 5330   3.051   3.522   0.834  1.9436  0.5054 -1.0446
 1580SOL     OW 5331   2.897   3.281   3.345 -0.7564 -0.0649 -0.2440
 1580SOL    HW1 5332   2.879   3.310   3.434 -1.2757  0.7316 -0.5949
 1580SOL    HW2 5333   2.923   3.189   3.354  1.1512  0.5230  0.9245
 1581SOL     OW 5334   0.380   4.786   1.576  0.4543  0.5321  0.0582
 1581SOL    HW1 5335   0.308   4.795   1.513 -0.2407 -0.2137  0.7122
 1581SOL    HW2 5336   0.340   4.805   1.660  0.9219 -0.3107  0.4811
 1582SOL     OW 5337   1.569   1.786   3.407 -0.0188 -0.1693 -0.0645
 1582SOL    HW1 5338   1.516   1.825   3.477 -0.8525  0.4497 -1.0118
 1582SOL    HW2 5339   1.639   1.849   3.391  0.0706 -0.2291  0.0900
 1583SOL     OW 5340   2.268   2.323   2.658  0.0095  0.1168  0.3560
 1583SOL    HW1 5341   2.199   2.386   2.677 -0.6931  0.0303 -1.6583
 1583SOL    HW2 5342   2.320   2.365   2.590  0.4253 -0.8560  0.0535
 1584SOL     OW 5343   3.722   1.735   3.459  0.3027  0.1557 -0.0553
 1584SOL    HW1 5344   3.800   1.781   3.429  0.2612 -0.7954 -1.7270
 1584SOL    HW2 5345   3.755   1.657   3.504  0.3261  0.7355  0.9703
 1585SOL     OW 5346   2.811   2.499   0.821 -0.2557 -0.7486  0.4662
 1585SOL    HW1 5347   2.906   2.490   0.828 -0.0918  0.1013 -0.3594
 1585SOL    HW2 5348   2.792   2.585   0.860 -0.4301 -0.0891 -0.9666
 1586SOL     OW 5349   3.733   3.222   0.390  0.1543 -0.6531 -0.2765
 1586SOL    HW1 5350   3.719   3.130   0.411 -1.3336 -0.0908  1.4540
 1586SOL    HW2 5351   3.681   3.270   0.455  0.2511  1.3965 -1.6138
 1587SOL     OW 5352   2.012   4.681   1.139 -0.2021  0.0451  0.4194
 1587SOL    HW1 5353   2.077   4.634   1.191  0.9012  0.2449 -0.7212
 1587SOL    HW2 5354   1.962   4.613   1.095 -1.0433 -0.1204  1.5857
 1588SOL     OW 5355   3.937   4.181   0.355 -0.0055 -0.2507 -0.0247
 1588SOL    HW1 5356   3.860   4.129   0.374 -1.8299  1.8940 -1.0991
 1588SOL    HW2 5357   3.935   4.195   0.261  0.5317  1.5150  0.1822
 1589SOL     OW 5358   2.879   3.766   1.542  0.8631  0.1133 -0.2500
 1589SOL    HW1 5359   2.816   3.804   1.480  0.7525  0.4786  0.0846
 1589SOL    HW2 5360   2.825   3.726   1.610  0.8877 -2.7207 -1.7428
 1590SOL     OW 5361   2.643   3.376   3.263 -0.4402  0.5626 -0.4852
 1590SOL    HW1 5362   2.733   3.365   3.296 -0.7163 -0.3718 -0.0066
 1590SOL    HW2 5363   2.624   3.469   3.277  0.7520  0.9745 -1.3847
 1591SOL     OW 5364   3.111   3.215   0.025  0.8909 -0.1242  0.9119
 1591SOL    HW1 5365   3.184   3.272  -0.001 -0.8282  1.3951 -0.8729
 1591SOL    HW2 5366   3.146   3.126   0.014  2.2035  0.5377 -0.9150
 1592SOL     OW 5367   1.322   3.505   2.372 -0.0283  0.3446  0.0326
 1592SOL    HW1 5368   1.267   3.555   2.311 -1.0426 -0.1391  0.5300
 1592SOL    HW2 5369   1.266   3.492   2.449 -0.0757 -2.1569 -0.3426
 1593SOL     OW 5370   3.186   2.941   0.041 -0.8580 -0.8131  0.5825
 1593SOL    HW1 5371   3.248   2.944   0.114 -1.0858 -1.3826  0.7995
 1593SOL    HW2 5372   3.129   2.867   0.060 -0.2795 -1.6117 -0.6895
 1594SOL     OW 5373   3.434   2.469   1.941 -0.4158  0.1199 -0.0265
 1594SOL    HW1 5374   3.459   2.498   1.854 -0.4832 -1.3182 -0.5627
 1594SOL    HW2 5375   3.370   2.399   1.925 -1.0528  0.3970  1.1993
 1595SOL     OW 5376   2.585   2.283   0.474  0.1771  0.3003 -0.1320
 1595SOL    HW1 5377   2.578   2.255   0.565 -0.7598 -0.1023 -0.3092
 1595SOL    HW2 5378   2.667   2.245   0.443 -0.3957 -1.1660  0.0289
 1596SOL     OW 5379   2.934   3.317   2.992 -0.1317  0.0501 -0.6456
 1596SOL    HW1 5380   2.985   3.380   3.043 -0.9564 -1.3208  2.0540
 1596SOL    HW2 5381   2.843   3.333   3.020 -0.7269 -0.2348 -2.3288
 1597SOL     OW 5382   3.548   1.175   0.496  0.0792 -0.7093  0.3966
 1597SOL    HW1 5383   3.472   1.210   0.449  0.5778  1.1052  0.8496
 1597SOL    HW2 5384   3.623   1.198   0.439  0.5419  0.2013  1.3372
 1598SOL     OW 5385   2.379   3.151   0.853  0.4583 -0.3693  0.1425
 1598SOL    HW1 5386   2.323   3.087   0.810 -0.5536  1.2112 -0.9935
 1598SOL    HW2 5387   2.333   3.172   0.935 -1.4765  1.9571 -1.4141
 1599SOL     OW 5388   3.050   3.098   0.831 -0.2159  0.2349  0.0857
 1599SOL    HW1 5389   3.053   3.052   0.747  0.8829 -1.5385  1.0113
 1599SOL    HW2 5390   3.063   3.028   0.896  0.4624  1.7535  1.6518
 1600SOL     OW 5391   2.175   1.639   2.822  0.3081 -0.3269  0.7980
 1600SOL    HW1 5392   2.259   1.658   2.779 -0.9955  0.2031 -1.7016
 1600SOL    HW2 5393   2.120   1.714   2.800 -1.1993 -1.2353  1.3818
 1601SOL     OW 5394   1.688   0.697   3.073 -0.0863  0.6258 -0.1564
 1601SOL    HW1 5395   1.780   0.672   3.080 -0.1385  0.3119 -0.5513
 1601SOL    HW2 5396   1.645   0.621   3.034 -1.2669 -0.9008  3.6113
 1602SOL     OW 5397   3.694   2.735   2.994 -0.1283 -0.0723  0.1978
 1602SOL    HW1 5398   3.626   2.736   2.927  0.9635  0.7767 -0.9576
 1602SOL    HW2 5399   3.705   2.827   3.018  0.7355 -0.1713  0.2167
 1603SOL     OW 5400   3.508   2.608   1.719 -0.0707  0.5555 -0.3531
 1603SOL    HW1 5401   3.601   2.608   1.695 -0.2953  1.6962 -1.3631
 1603SOL    HW2 5402   3.493   2.696   1.754 -0.5659  0.0563  0.7276
 1604SOL     OW 5403   2.169   2.818   0.710  0.4708  0.5565  0.0399
 1604SOL    HW1 5404   2.139   2.892   0.762 -1.2376  0.5156 -0.8067
 1604SOL    HW2 5405   2.090   2.767   0.692  1.3965 -0.7773 -0.4994
 1605SOL     OW 5406   3.444   0.837   0.441  0.4380 -0.6398  0.4498
 1605SOL    HW1 5407   3.439   0.882   0.357  3.0289  0.3938  0.7750
 1605SOL    HW2 5408   3.353   0.812   0.460 -0.5644  1.2044 -1.4943
 1606SOL     OW 5409   3.392   1.855   3.197 -0.5301  0.3815  0.2402
 1606SOL    HW1 5410   3.445   1.835   3.120 -0.0473 -0.3586  0.7471
 1606SOL    HW2 5411   3.307   1.882   3.162 -0.1601  0.5307 -0.5547
 1607SOL     OW 5412   3.360   2.817   2.548 -0.3603  0.5197 -0.7735
 1607SOL    HW1 5413   3.327   2.893   2.500 -0.7690  0.6389 -0.3050
 1607SOL    HW2 5414   3.425   2.778   2.489 -0.9886  0.5512 -1.5035
 1608SOL     OW 5415   2.593   2.859   3.272  0.6504 -0.0626 -0.7135
 1608SOL    HW1 5416   2.575   2.885   3.362  0.4133  1.1808 -1.1043
 1608SOL    HW2 5417   2.613   2.941   3.227  1.3511 -0.7395 -1.6610
 1609SOL     OW 5418   2.805   2.689   0.386  0.4174 -0.7513  0.5742
 1609SOL    HW1 5419   2.815   2.608   0.436  0.7984 -1.6407 -0.8577
 1609SOL    HW2 5420   2.775   2.660   0.300  1.8203  0.4811 -0.3929
 1610SOL     OW 5421   2.906   2.267   1.901 -0.1790 -0.3106 -0.3129
 1610SOL    HW1 5422   2.887   2.288   1.810 -0.8066  0.1835 -0.0751
 1610SOL    HW2 5423   2.949   2.345   1.936 -1.1092 -0.0001  0.1593
 1611SOL     OW 5424   2.608   2.103   3.192 -0.0625  0.4109  0.0706
 1611SOL    HW1 5425   2.539   2.084   3.129  0.2197  2.3683 -0.9117
 1611SOL    HW2 5426   2.678   2.144   3.140  1.4175 -0.5464  1.2025
 1612SOL     OW 5427   2.745   3.419   0.808  0.4781 -0.1194  0.4252
 1612SOL    HW1 5428   2.785   3.498   0.844 -0.0690  0.4621 -0.2217
 1612SOL    HW2 5429   2.653   3.425   0.833  0.4417 -0.5793  0.4124
 1613SOL     OW 5430   2.471   3.408   0.795  0.1158  0.3501  0.2494
 1613SOL    HW1 5431   2.438   3.318   0.796 -0.6682  0.6197  1.2640
 1613SOL    HW2 5432   2.392   3.462   0.795  0.5796  1.0415 -0.4814
 1614SOL     OW 5433   4.285   0.658   2.801  0.3853  0.1965 -0.4027
 1614SOL    HW1 5434   4.283   0.575   2.752 -1.2569  0.9345 -1.6934
 1614SOL    HW2 5435   4.291   0.725   2.734 -1.8063  1.2476  0.3584
 1615SOL     OW 5436   1.816   2.926   1.501 -0.4216  0.5521  0.1365
 1615SOL    HW1 5437   1.853   2.892   1.420 -1.9943 -0.1145 -0.3415
 1615SOL    HW2 5438   1.889   2.972   1.543  0.9486 -0.7327 -0.7109
 1616SOL     OW 5439   2.207   1.656   0.936  0.3241 -0.4430 -0.6298
 1616SOL    HW1 5440   2.178   1.634   0.848  0.5102  1.7768 -1.3070
 1616SOL    HW2 5441   2.154   1.731   0.961  0.3324 -0.9760  1.1497
 1617SOL     OW 5442   3.611   0.615   0.489 -0.3343 -0.3088  0.1934
 1617SOL    HW1 5443   3.554   0.684   0.454 -0.6836 -0.7277 -0.0656
 1617SOL    HW2 5444   3.695   0.659   0.503  0.3232 -0.4645 -2.6961
 1618SOL     OW 5445   3.497   1.891   0.468  0.0972 -0.0288  0.3332
 1618SOL    HW1 5446   3.528   1.860   0.383  0.8715  1.1259  0.1742
 1618SOL    HW2 5447   3.534   1.829   0.531 -0.1066 -0.6237 -0.1174
 1619SOL     OW 5448   3.290   2.608   0.814  0.7938 -0.3546 -0.3490
 1619SOL    HW1 5449   3.385   2.606   0.824  1.0397  0.2107 -2.3046
 1619SOL    HW2 5450   3.275   2.606   0.720 -1.1973 -2.0492 -0.0748
 1620SOL     OW 5451   1.242   2.600   0.944  0.0637 -0.2008 -0.3273
 1620SOL    HW1 5452   1.270   2.548   0.869 -0.0002 -1.1190  0.2738
 1620SOL    HW2 5453   1.164   2.646   0.914  2.0020  2.3151 -2.0018
 1621SOL     OW 5454   4.283   3.125   0.306 -0.2598 -0.4256 -0.6848
 1621SOL    HW1 5455   4.223   3.146   0.234 -0.0764  1.4942 -0.3264
 1621SOL    HW2 5456   4.368   3.156   0.275  0.0373 -0.6651 -0.1068
 1622SOL     OW 5457   1.733   2.330   0.322  0.6661  0.0029 -0.0892
 1622SOL    HW1 5458   1.656   2.275   0.311 -0.2936  1.1237  0.6860
 1622SOL    HW2 5459   1.698   2.418   0.338  2.1159  0.6303 -0.1404
 1623SOL     OW 5460   2.220   2.096   2.782  0.7079  0.3337 -0.3298
 1623SOL    HW1 5461   2.226   2.179   2.734  0.5891  1.1652  1.0551
 1623SOL    HW2 5462   2.127   2.085   2.800  0.3813 -1.3634 -2.5710
 1624SOL     OW 5463   3.189   2.165   1.936  0.1947  0.2462  0.1845
 1624SOL    HW1 5464   3.109   2.125   1.903  1.2687  0.2463 -2.7225
 1624SOL    HW2 5465   3.183   2.156   2.031 -3.4437  0.6953  0.1540
 1625SOL     OW 5466   2.802   4.187   2.871 -0.7257  0.1812 -0.5987
 1625SOL    HW1 5467   2.862   4.180   2.796 -0.8439  0.8864 -0.7648
 1625SOL    HW2 5468   2.771   4.098   2.885 -0.1088 -0.0887 -0.9038
 1626SOL     OW 5469   2.822   1.985   2.949 -0.4949  0.1574 -0.1333
 1626SOL    HW1 5470   2.908   2.007   2.913  0.0802 -1.0890  0.4272
 1626SOL    HW2 5471   2.775   2.068   2.949 -1.2970  0.0802 -5.5212
 1627SOL     OW 5472   1.168   3.811   2.958  0.0339  0.2339  0.0055
 1627SOL    HW1 5473   1.183   3.717   2.971 -2.0304 -0.3410 -1.2848
 1627SOL    HW2 5474   1.256   3.848   2.952  0.9085 -1.5133  1.1411
 1628SOL     OW 5475   2.025   2.490   0.534 -0.0298 -0.2844  0.1783
 1628SOL    HW1 5476   2.116   2.479   0.563  0.1563 -1.8036 -0.8381
 1628SOL    HW2 5477   2.010   2.584   0.533  1.6460 -0.0030  0.0341
 1629SOL     OW 5478   3.027   2.741   0.131 -0.2735 -0.2478 -0.3216
 1629SOL    HW1 5479   3.005   2.685   0.057 -0.5293 -0.7712  0.1380
 1629SOL    HW2 5480   3.082   2.686   0.187 -2.0516 -0.7073  1.0536
 1630SOL     OW 5481   2.438   2.355   3.286 -0.5391  0.2420  0.1581
 1630SOL    HW1 5482   2.370   2.331   3.349  0.9380 -0.2283  1.6758
 1630SOL    HW2 5483   2.474   2.272   3.257  0.3972  0.4893  0.5673
 1631SOL     OW 5484   1.195   2.539   1.599  0.1980 -0.1281 -0.1235
 1631SOL    HW1 5485   1.114   2.523   1.551  0.6198 -0.3077 -0.7862
 1631SOL    HW2 5486   1.234   2.614   1.555  0.2885  0.0992  0.3370
 1632SOL     OW 5487   3.060   2.820   2.450  0.4581 -0.0503 -0.0625
 1632SOL    HW1 5488   3.011   2.802   2.369 -0.6359 -0.0050  0.5717
 1632SOL    HW2 5489   3.149   2.841   2.420 -0.4277  2.0404 -1.4388
 1633SOL     OW 5490   2.655   1.609   1.564  0.5553 -0.0941  0.2309
 1633SOL    HW1 5491   2.629   1.518   1.556 -1.2777  0.3255  0.9608
 1633SOL    HW2 5492   2.575   1.655   1.589  1.1396  1.9217 -1.3553
 1634SOL     OW 5493   1.588   1.951   1.123 -0.2244  0.6350 -0.0064
 1634SOL    HW1 5494   1.641   1.876   1.148  0.3918  1.3815  1.0041
 1634SOL    HW2 5495   1.520   1.957   1.190 -0.4701  0.7914 -0.2622
 1635SOL     OW 5496   2.907   3.492   0.381  0.1831 -0.3326 -0.3097
 1635SOL    HW1 5497   2.820   3.471   0.416  0.8840 -1.2125  0.9722
 1635SOL    HW2 5498   2.938   3.410   0.343  0.8215 -0.2742  0.0671
 1636SOL     OW 5499   2.670   2.335   2.171 -0.4610  0.3571  0.3304
 1636SOL    HW1 5500   2.750   2.286   2.193  0.3771  1.0446 -1.0032
 1636SOL    HW2 5501   2.634   2.361   2.255  0.6745 -0.0619  0.9757
 1637SOL     OW 5502   1.633   2.492   0.755  0.3233 -0.1604 -0.0482
 1637SOL    HW1 5503   1.646   2.485   0.850 -0.1935 -2.4522 -0.0970
 1637SOL    HW2 5504   1.719   2.473   0.717  0.4302  0.3328 -0.0599
 1638SOL     OW 5505   2.763   1.385   0.110  0.6861 -0.1049 -0.4029
 1638SOL    HW1 5506   2.851   1.372   0.146  1.7076  0.8531 -2.4074
 1638SOL    HW2 5507   2.713   1.422   0.183  2.0355 -0.2768  0.6663
 1639SOL     OW 5508   2.406   3.611   2.183 -0.0216  0.2946  0.0317
 1639SOL    HW1 5509   2.394   3.525   2.222  0.4240  0.4164  0.4385
 1639SOL    HW2 5510   2.439   3.666   2.254 -0.7612  0.9254 -0.0995
 1640SOL     OW 5511   2.003   3.203   3.326 -0.2833 -0.3724  0.1663
 1640SOL    HW1 5512   2.021   3.295   3.306 -0.9523  0.1583  1.8616
 1640SOL    HW2 5513   2.072   3.155   3.281  1.3515  1.1085  0.9644
 1641SOL     OW 5514   2.580   2.946   0.867 -0.3841 -0.2880 -0.2519
 1641SOL    HW1 5515   2.526   3.025   0.871  0.6057  0.3953  0.0721
 1641SOL    HW2 5516   2.670   2.979   0.860 -0.1480 -1.3026 -5.2621
 1642SOL     OW 5517   1.931   1.720   3.194  0.2362  0.6997 -0.0366
 1642SOL    HW1 5518   1.898   1.785   3.256 -0.0829  0.5848 -0.0843
 1642SOL    HW2 5519   2.016   1.754   3.166 -0.1223  1.3255 -0.3921
 1643SOL     OW 5520   3.622   3.173   0.888 -0.2658 -0.7117 -0.3761
 1643SOL    HW1 5521   3.696   3.231   0.870  1.6759 -2.3705  1.6918
 1643SOL    HW2 5522   3.546   3.231   0.895  1.3445  1.4220  0.3518
 1644SOL     OW 5523   1.663   4.145   0.898  0.2129  0.0298 -0.1727
 1644SOL    HW1 5524   1.733   4.195   0.857 -0.1254 -0.7180 -1.7324
 1644SOL    HW2 5525   1.593   4.208   0.911 -0.0405  0.0989 -1.6953
 1645SOL     OW 5526   1.651   3.740   0.149  1.0756  0.0921  0.4825
 1645SOL    HW1 5527   1.722   3.697   0.101  1.6286 -0.3982  1.6822
 1645SOL    HW2 5528   1.695   3.808   0.201  0.6366 -0.0010  0.9866
 1646SOL     OW 5529   4.565   2.025   1.538  0.4109 -0.2206  0.1018
 1646SOL    HW1 5530   4.528   2.110   1.564  1.4248  0.0625  0.6730
 1646SOL    HW2 5531   4.629   2.047   1.471 -1.1683 -0.8158 -1.7043
 1647SOL     OW 5532   2.693   1.912   1.628  0.4196  0.2244 -0.9991
 1647SOL    HW1 5533   2.662   1.851   1.561 -0.6238  1.0264 -1.2784
 1647SOL    HW2 5534   2.653   1.996   1.605 -2.1243  0.0225  1.9960
 1648SOL     OW 5535   1.073   2.810   2.958 -0.1665 -0.3351  0.1046
 1648SOL    HW1 5536   1.110   2.736   3.005  0.0622  0.4239  1.1506
 1648SOL    HW2 5537   1.006   2.771   2.902  1.0246 -1.5137 -0.5535
 1649SOL     OW 5538   2.617   3.102   3.152 -0.2735  0.4167  0.1278
 1649SOL    HW1 5539   2.601   3.182   3.201  1.9405  2.0375 -1.5748
 1649SOL    HW2 5540   2.631   3.132   3.062  0.0392 -1.9580 -0.6816
 1650SOL     OW 5541   3.583   3.336   0.589 -0.2113 -0.3240  0.0855
 1650SOL    HW1 5542   3.505   3.281   0.598  0.5732 -1.3845  0.5910
 1650SOL    HW2 5543   3.608   3.357   0.679 -1.1611  1.8826 -0.0978
 1651SOL     OW 5544   2.388   2.475   0.401 -0.7893 -0.2315 -0.3880
 1651SOL    HW1 5545   2.341   2.476   0.484 -1.3148  2.0198 -0.6420
 1651SOL    HW2 5546   2.431   2.389   0.399 -0.8490 -0.4125  2.1353
 1652SOL     OW 5547   2.688   3.536   2.377  0.3126 -0.6854 -0.3165
 1652SOL    HW1 5548   2.751   3.542   2.448  0.1007 -0.7214 -0.1223
 1652SOL    HW2 5549   2.605   3.517   2.421  0.0709 -0.1391 -0.5192
 1653SOL     OW 5550   2.954   2.982   1.580 -0.2723 -0.1262  0.1698
 1653SOL    HW1 5551   2.982   3.072   1.567  2.1154 -0.7190  0.6545
 1653SOL    HW2 5552   2.928   2.952   1.493  3.2104 -0.2324 -0.9807
 1654SOL     OW 5553   3.729   0.689   2.440  0.7621 -0.1269 -0.0674
 1654SOL    HW1 5554   3.794   0.696   2.371 -1.4774 -0.5289 -2.3740
 1654SOL    HW2 5555   3.694   0.778   2.449  0.8395 -0.1348  0.3525
 1655SOL     OW 5556   2.272   4.297   1.733  0.2280 -0.3373  0.1244
 1655SOL    HW1 5557   2.289   4.226   1.671  1.7026  0.6895 -0.6793
 1655SOL    HW2 5558   2.176   4.300   1.739  0.0228 -0.5101 -2.0735
 1656SOL     OW 5559   1.551   2.735   1.189  0.4463 -0.3356 -0.1009
 1656SOL    HW1 5560   1.576   2.649   1.157 -1.9074 -0.8589 -0.7601
 1656SOL    HW2 5561   1.561   2.794   1.114  1.6629 -0.0852  0.2368
 1657SOL     OW 5562   2.606   3.407   1.826 -0.3792  0.1855 -0.0190
 1657SOL    HW1 5563   2.680   3.352   1.854 -1.3930 -0.8873  0.6238
 1657SOL    HW2 5564   2.621   3.421   1.732  1.6963  1.6936  0.4543
 1658SOL     OW 5565   3.780   2.221   2.956 -0.5293 -0.3191  0.6455
 1658SOL    HW1 5566   3.727   2.300   2.971 -1.5089 -0.8976  0.3037
 1658SOL    HW2 5567   3.794   2.185   3.044 -1.3711 -0.5759  0.6825
 1659SOL     OW 5568   2.338   3.419   1.821  0.0591 -0.2122  0.0115
 1659SOL    HW1 5569   2.316   3.425   1.728  1.9117 -1.6450 -0.5705
 1659SOL    HW2 5570   2.433   3.421   1.824  0.0548 -0.5139  1.8764
 1660SOL     OW 5571   2.223   1.156   0.116  0.3381  0.4570  0.1324
 1660SOL    HW1 5572   2.314   1.127   0.108  0.4446  0.2788  1.6877
 1660SOL    HW2 5573   2.172   1.084   0.081  0.7701  0.3465 -0.2870
 1661SOL     OW 5574   3.527   1.597   3.283  0.2997  0.6771  0.3524
 1661SOL    HW1 5575   3.611   1.613   3.327  0.3327  1.2404  0.0823
 1661SOL    HW2 5576   3.499   1.683   3.252  0.8517  0.1524 -1.7685
 1662SOL     OW 5577   2.783   1.798   3.170 -0.8012 -0.2787 -0.1918
 1662SOL    HW1 5578   2.836   1.781   3.248 -1.0339 -2.0874 -0.3817
 1662SOL    HW2 5579   2.841   1.850   3.113  0.4832 -1.4959 -0.0500
 1663SOL     OW 5580   0.849   4.093   1.734  0.2879 -0.3522 -0.6813
 1663SOL    HW1 5581   0.904   4.036   1.680  2.3600  1.4879 -0.6135
 1663SOL    HW2 5582   0.859   4.180   1.696 -0.2882  0.5401  1.0887
 1664SOL     OW 5583   2.458   1.707   0.130 -0.2941  0.2897 -0.1915
 1664SOL    HW1 5584   2.391   1.734   0.067  0.2301  0.0318 -0.8745
 1664SOL    HW2 5585   2.445   1.764   0.205 -0.5927  0.9668 -0.7492
 1665SOL     OW 5586   2.403   2.765   2.842  0.0669  0.0345  0.2948
 1665SOL    HW1 5587   2.480   2.822   2.847 -0.3540  0.5499  1.2224
 1665SOL    HW2 5588   2.404   2.717   2.925  1.2285 -2.4310 -1.0373
 1666SOL     OW 5589   3.584   2.381   0.390 -0.3820  0.2615 -0.1691
 1666SOL    HW1 5590   3.506   2.432   0.370 -0.7302 -1.0791 -2.6900
 1666SOL    HW2 5591   3.646   2.403   0.320  0.4286 -0.7677  0.1993
 1667SOL     OW 5592   1.147   3.058   1.868 -0.6868 -0.0107  0.2625
 1667SOL    HW1 5593   1.214   3.019   1.813 -0.6855 -0.2034  0.3986
 1667SOL    HW2 5594   1.103   2.983   1.910 -1.1966  0.0940 -0.0696
 1668SOL     OW 5595   2.637   2.057   0.158  0.3020  0.3392 -0.1853
 1668SOL    HW1 5596   2.633   2.027   0.067  1.2126  1.0749 -0.4877
 1668SOL    HW2 5597   2.632   2.153   0.152 -0.6065  0.3535  0.6153
 1669SOL     OW 5598   2.749   2.588   0.117  0.4896 -0.5985 -1.0162
 1669SOL    HW1 5599   2.838   2.587   0.084  1.4017 -0.7607  1.2701
 1669SOL    HW2 5600   2.716   2.675   0.094  1.8609  0.1211 -0.3703
 1670SOL     OW 5601   2.459   1.281   3.320  0.2913 -0.4871  0.4419
 1670SOL    HW1 5602   2.460   1.376   3.311  0.4158 -0.5767 -0.6317
 1670SOL    HW2 5603   2.489   1.265   3.409  1.0851  0.4531  0.3627
 1671SOL     OW 5604   2.296   3.413   1.550 -0.1280  0.1550 -0.2493
 1671SOL    HW1 5605   2.317   3.483   1.489  0.5233  0.4919  0.3400
 1671SOL    HW2 5606   2.219   3.370   1.513  0.2238  0.3830 -1.2701
 1672SOL     OW 5607   3.059   2.441   0.831 -0.0683  0.1160 -0.1316
 1672SOL    HW1 5608   3.104   2.399   0.758  0.2051 -0.2644  0.2540
 1672SOL    HW2 5609   3.127   2.493   0.874  0.2910 -1.3151  1.1047
 1673SOL     OW 5610   2.186   2.232   0.137  0.2195  0.5329 -0.2669
 1673SOL    HW1 5611   2.252   2.301   0.145 -0.9499  1.7479 -0.7407
 1673SOL    HW2 5612   2.114   2.260   0.194 -0.2495 -0.3430 -0.3956
 1674SOL     OW 5613   1.777   2.644   0.038  0.0022 -0.4623 -0.0598
 1674SOL    HW1 5614   1.686   2.631   0.066  0.3267 -1.9070  0.3625
 1674SOL    HW2 5615   1.828   2.642   0.119  0.3734  1.0184 -0.2220
 1675SOL     OW 5616   2.753   3.928   2.883  0.5788 -0.1791 -0.3633
 1675SOL    HW1 5617   2.706   3.858   2.928  3.4015 -1.1943  1.2712
 1675SOL    HW2 5618   2.752   3.903   2.791  0.6466 -1.8576  0.0597
 1676SOL     OW 5619   2.939   1.549   1.551 -0.0787  0.5287  0.6670
 1676SOL    HW1 5620   2.846   1.571   1.543 -0.5893 -1.7800 -0.8773
 1676SOL    HW2 5621   2.969   1.542   1.460  2.2583  3.3498  1.0765
 1677SOL     OW 5622   2.141   2.206   2.415 -0.0493 -0.2221 -0.4610
 1677SOL    HW1 5623   2.210   2.270   2.403 -0.5639  0.0243 -2.4349
 1677SOL    HW2 5624   2.065   2.257   2.443 -0.2600 -0.0621 -1.3154
 1678SOL     OW 5625   2.310   2.033   0.413 -0.4569  0.4963  0.0525
 1678SOL    HW1 5626   2.299   2.088   0.335 -3.5014  0.3867  0.2861
 1678SOL    HW2 5627   2.382   1.974   0.390  0.6825  2.3666 -1.4986
 1679SOL     OW 5628   4.004   3.158   0.460  0.1816  0.2496  0.0988
 1679SOL    HW1 5629   3.926   3.157   0.404 -0.0204  2.7345  0.2237
 1679SOL    HW2 5630   4.073   3.121   0.406 -0.8107 -0.9263 -0.4148
 1680SOL     OW 5631   3.427   4.032   0.758 -0.0009 -0.1181 -0.2127
 1680SOL    HW1 5632   3.360   4.095   0.786  0.4725  0.9835 -1.5133
 1680SOL    HW2 5633   3.423   4.033   0.663  0.9794 -1.0349 -0.2813
 1681SOL     OW 5634   2.095   2.688   2.535 -0.2882 -0.1504  0.6819
 1681SOL    HW1 5635   2.129   2.748   2.602 -1.0476  1.2006 -0.1150
 1681SOL    HW2 5636   2.172   2.638   2.507  0.7012  1.5569  0.2394
 1682SOL     OW 5637   3.053   2.462   1.617 -0.2170 -0.3639  0.2780
 1682SOL    HW1 5638   3.062   2.491   1.707 -1.0308 -0.3281  0.3582
 1682SOL    HW2 5639   3.125   2.504   1.570 -1.3111  1.7608  0.4046
 1683SOL     OW 5640   1.620   4.398   1.952  0.4221 -0.0858 -0.3088
 1683SOL    HW1 5641   1.547   4.421   1.895 -0.3340 -2.4076 -0.3717
 1683SOL    HW2 5642   1.676   4.476   1.952  0.5376  0.0342 -4.2569
 1684SOL     OW 5643   3.962   1.079   1.011 -0.1751 -0.3089  0.6139
 1684SOL    HW1 5644   3.905   1.003   0.997  0.7150 -1.1143  1.2438
 1684SOL    HW2 5645   4.048   1.051   0.983 -0.1914  1.1871 -1.1395
 1685SOL     OW 5646   2.790   2.765   0.894  0.5833 -0.3225 -0.0838
 1685SOL    HW1 5647   2.701   2.799   0.889  0.4985 -0.3138  1.0773
 1685SOL    HW2 5648   2.842   2.827   0.844  0.0557  0.1249 -0.0908
 1686SOL     OW 5649   2.756   1.923   1.895 -0.3646  0.3829  0.6076
 1686SOL    HW1 5650   2.727   1.902   1.806 -0.3030 -0.9515  0.8842
 1686SOL    HW2 5651   2.698   1.994   1.923 -1.3301 -0.1538  0.0231
 1687SOL     OW 5652   2.194   3.460   0.737  0.5057  0.1045  0.3365
 1687SOL    HW1 5653   2.103   3.488   0.723  0.6393  0.0653 -0.6695
 1687SOL    HW2 5654   2.224   3.432   0.651  1.3680 -0.2188  0.7319
 1688SOL     OW 5655   2.645   2.844   0.120 -0.0240  0.7777  0.0835
 1688SOL    HW1 5656   2.720   2.883   0.166  0.9011  1.5125 -1.9211
 1688SOL    HW2 5657   2.618   2.911   0.057 -0.5373 -0.5597 -1.1750
 1689SOL     OW 5658   2.959   1.874   0.785 -0.7912  0.0482 -0.3905
 1689SOL    HW1 5659   2.904   1.805   0.820  0.1232  0.5746  2.3356
 1689SOL    HW2 5660   3.047   1.854   0.817 -0.0511  1.1941 -1.5673
 1690SOL     OW 5661   3.662   1.993   3.121  0.0090 -0.0201 -0.3832
 1690SOL    HW1 5662   3.674   1.970   3.029 -3.4224 -0.3037 -0.9160
 1690SOL    HW2 5663   3.568   1.979   3.136  0.0238  2.2531  2.5380
 1691SOL     OW 5664   4.497   3.720   0.816 -0.3949  0.5977 -0.2496
 1691SOL    HW1 5665   4.457   3.718   0.729 -0.0074 -0.3947 -0.4171
 1691SOL    HW2 5666   4.577   3.667   0.807 -0.9593 -0.5085  0.9951
 1692SOL     OW 5667   1.157   1.647   1.997 -0.0270  0.0096  0.1113
 1692SOL    HW1 5668   1.240   1.602   1.976 -0.9377 -1.2733 -0.8865
 1692SOL    HW2 5669   1.141   1.623   2.088  0.4281 -0.1957  0.1464
 1693SOL     OW 5670   1.627   2.158   1.347 -1.2991  0.1757  0.4049
 1693SOL    HW1 5671   1.583   2.243   1.350 -0.9401  0.3405  1.6586
 1693SOL    HW2 5672   1.557   2.096   1.328 -1.4810  0.7913 -1.0241
 1694SOL     OW 5673   2.223   2.378   1.620  0.1039  0.1442 -0.4594
 1694SOL    HW1 5674   2.198   2.471   1.614 -1.2325 -0.2375 -1.3294
 1694SOL    HW2 5675   2.305   2.378   1.669 -0.7147  1.6592  1.0122
 1695SOL     OW 5676   1.852   2.029   0.726 -0.2849 -0.3450  0.0691
 1695SOL    HW1 5677   1.894   2.066   0.804 -0.9139 -2.3150  1.4092
 1695SOL    HW2 5678   1.759   2.054   0.735 -0.4595 -1.0491  0.2617
 1696SOL     OW 5679   3.587   2.721   0.551 -0.0945  0.0886 -0.3195
 1696SOL    HW1 5680   3.616   2.703   0.462 -1.8024 -0.9385 -0.7216
 1696SOL    HW2 5681   3.666   2.711   0.605  0.9252  0.5554 -1.6715
 1697SOL     OW 5682   3.206   1.776   0.853  0.2991  0.0797 -0.1036
 1697SOL    HW1 5683   3.269   1.845   0.832  0.9502  0.0767  1.6130
 1697SOL    HW2 5684   3.260   1.701   0.878 -0.3316  0.0473  1.3082
 1698SOL     OW 5685   2.528   1.876   0.348  0.4559 -0.2132  0.2488
 1698SOL    HW1 5686   2.585   1.856   0.422  1.2752 -1.5794 -0.7088
 1698SOL    HW2 5687   2.571   1.949   0.304  0.3515  0.1231  0.6915
 1699SOL     OW 5688   2.361   1.812   3.388 -0.0207 -0.2888 -0.0159
 1699SOL    HW1 5689   2.276   1.810   3.431  1.2013 -0.3083  2.6365
 1699SOL    HW2 5690   2.344   1.845   3.300 -2.5374  1.2761  0.9716
 1700SOL     OW 5691   2.889   1.087   3.176 -0.0525 -0.0756 -0.1508
 1700SOL    HW1 5692   2.960   1.071   3.113  0.0445  1.2310 -0.4046
 1700SOL    HW2 5693   2.811   1.096   3.123 -0.1482  0.0357  0.0084
 1701SOL     OW 5694   1.047   2.905   0.375  0.6739  0.1011 -0.4926
 1701SOL    HW1 5695   1.060   2.996   0.399 -0.9354  0.0258  0.8676
 1701SOL    HW2 5696   1.127   2.860   0.403  0.3030  0.6302  1.5354
 1702SOL     OW 5697   2.757   3.685   3.491  0.5774 -0.0643 -0.4462
 1702SOL    HW1 5698   2.734   3.761   3.437  1.0396  0.2666 -0.1854
 1702SOL    HW2 5699   2.851   3.692   3.504  0.2794  0.6841  1.6154
 1703SOL     OW 5700   1.646   3.094   1.625  0.4379 -0.4083  0.2033
 1703SOL    HW1 5701   1.685   3.034   1.561  1.6321 -0.8549  1.3273
 1703SOL    HW2 5702   1.668   3.181   1.592  3.8591 -0.6174  1.5843
 1704SOL     OW 5703   0.136   2.644   2.695 -0.1580  0.4268 -0.0480
 1704SOL    HW1 5704   0.181   2.649   2.780  0.9921  1.8538 -0.7126
 1704SOL    HW2 5705   0.043   2.646   2.718  0.1282  1.0663  1.1811
 1705SOL     OW 5706   2.092   2.086   3.469 -0.6564 -0.4260 -0.0885
 1705SOL    HW1 5707   2.121   2.138   3.544 -1.7204 -1.1320  0.8494
 1705SOL    HW2 5708   2.016   2.133   3.435  0.4557  0.4640 -1.4186
 1706SOL     OW 5709   2.886   3.727   0.515  0.1073 -0.5922  0.1324
 1706SOL    HW1 5710   2.881   3.650   0.458  0.2663 -0.8230  0.4212
 1706SOL    HW2 5711   2.815   3.714   0.579 -0.1674 -0.2607 -0.1024
 1707SOL     OW 5712   3.926   1.087   2.869 -0.2052 -0.2463 -0.1134
 1707SOL    HW1 5713   3.963   1.030   2.801  1.0688  0.1648  0.1921
 1707SOL    HW2 5714   3.836   1.057   2.880 -0.0009 -1.2450 -0.9796
 1708SOL     OW 5715   2.800   2.800   2.558 -0.0020 -0.0183  0.0870
 1708SOL    HW1 5716   2.883   2.846   2.559 -1.4685  2.8160  0.6284
 1708SOL    HW2 5717   2.739   2.859   2.514 -2.0363 -1.4171  0.8318
 1709SOL     OW 5718   3.227   3.803   0.769 -0.0665 -0.0281  0.1499
 1709SOL    HW1 5719   3.284   3.871   0.805  0.2560 -0.2735  0.1119
 1709SOL    HW2 5720   3.169   3.849   0.708  0.8455  0.0617 -0.6695
 1710SOL     OW 5721   3.163   2.407   2.795 -0.0085  0.2525 -0.2302
 1710SOL    HW1 5722   3.202   2.493   2.780  0.4956  0.1127  0.2651
 1710SOL    HW2 5723   3.228   2.359   2.845 -1.6966  0.8064  2.7424
 1711SOL     OW 5724   1.444   2.873   3.148  0.2505 -0.1905 -0.2554
 1711SOL    HW1 5725   1.418   2.875   3.055 -2.3730 -1.3221  0.3498
 1711SOL    HW2 5726   1.362   2.855   3.195  1.4010  0.8814  2.3521
 1712SOL     OW 5727   3.820   3.198   2.834 -0.0504  0.1550 -0.2673
 1712SOL    HW1 5728   3.892   3.136   2.822  0.3442  0.7868 -1.3438
 1712SOL    HW2 5729   3.741   3.143   2.835  0.4561 -0.5895  1.4217
 1713SOL     OW 5730   2.445   1.565   3.285 -0.2106 -0.1683 -0.0192
 1713SOL    HW1 5731   2.350   1.566   3.295 -0.2993  1.0007 -0.7304
 1713SOL    HW2 5732   2.475   1.637   3.341  0.3481 -1.0852  0.8817
 1714SOL     OW 5733   3.524   2.038   2.683 -0.6081 -0.2869 -0.1750
 1714SOL    HW1 5734   3.483   2.038   2.597 -0.0072  0.5536 -0.4702
 1714SOL    HW2 5735   3.515   2.128   2.715 -1.4301 -0.7351  0.9449
 1715SOL     OW 5736   2.689   3.737   2.193  0.1561  0.2657 -0.0559
 1715SOL    HW1 5737   2.659   3.720   2.104 -1.2767  1.7416  0.0989
 1715SOL    HW2 5738   2.679   3.653   2.238 -0.6394 -0.0986 -0.8713
 1716SOL     OW 5739   0.964   4.646   2.251  0.0048  0.1681 -0.2417
 1716SOL    HW1 5740   1.003   4.722   2.207 -2.3263  0.8632 -1.2371
 1716SOL    HW2 5741   1.016   4.635   2.331  1.2510  1.9519 -0.7566
 1717SOL     OW 5742   1.943   4.205   1.993  0.2538  0.2447  0.0044
 1717SOL    HW1 5743   1.974   4.272   1.932  1.2468 -0.0311  0.1926
 1717SOL    HW2 5744   1.966   4.238   2.080 -1.3444  0.7375  0.2733
 1718SOL     OW 5745   3.015   3.739   2.701  0.1369  0.4677 -0.2871
 1718SOL    HW1 5746   3.023   3.645   2.690 -1.0454  0.3461 -0.2935
 1718SOL    HW2 5747   3.094   3.775   2.662  0.1213 -0.4590 -1.2251
 1719SOL     OW 5748   0.714   3.134   1.970 -0.0518  0.3524  0.1061
 1719SOL    HW1 5749   0.626   3.149   1.935  0.8351 -0.0697 -2.5294
 1719SOL    HW2 5750   0.706   3.055   2.023 -0.6672 -1.7838 -2.9251
 1720SOL     OW 5751   2.312   1.082   0.685  0.0225  0.6861  0.1478
 1720SOL    HW1 5752   2.276   1.169   0.667  1.3458  1.0789 -0.6982
 1720SOL    HW2 5753   2.377   1.067   0.617 -1.3949 -1.7453 -0.7908
 1721SOL     OW 5754   2.336   2.431   2.416  0.1883  0.1128 -0.0094
 1721SOL    HW1 5755   2.422   2.472   2.415  0.4498 -0.4440 -1.0416
 1721SOL    HW2 5756   2.289   2.470   2.342 -0.8543  1.2159  1.1730
 1722SOL     OW 5757   4.022   3.801   2.503  0.0015  0.2308 -0.1858
 1722SOL    HW1 5758   3.977   3.883   2.485 -2.3904 -1.0511 -0.3458
 1722SOL    HW2 5759   3.988   3.772   2.587 -0.0158 -1.1033 -0.6154
 1723SOL     OW 5760   2.227   4.005   2.001  0.3716 -0.0043 -0.7347
 1723SOL    HW1 5761   2.162   4.055   1.953  0.3812 -0.1665 -0.9177
 1723SOL    HW2 5762   2.231   3.920   1.956 -0.2505 -0.4795  0.0771
 1724SOL     OW 5763   3.785   1.129   2.431  0.1986 -0.6625 -0.1424
 1724SOL    HW1 5764   3.839   1.051   2.416  0.5121 -0.7578  1.3077
 1724SOL    HW2 5765   3.699   1.094   2.456  0.7039 -0.6166  1.8355
 1725SOL     OW 5766   3.705   2.279   2.559 -0.6119  0.3001 -0.3555
 1725SOL    HW1 5767   3.712   2.198   2.508  0.5786  0.2753 -0.1839
 1725SOL    HW2 5768   3.782   2.278   2.616 -2.0704  0.1182  1.7637
 1726SOL     OW 5769   2.233   3.045   3.236  0.4200  0.4525 -0.3800
 1726SOL    HW1 5770   2.259   2.966   3.283 -0.5603 -0.1612 -0.8333
 1726SOL    HW2 5771   2.284   3.115   3.276  0.4195 -0.2237  0.8350
 1727SOL     OW 5772   3.475   3.130   2.603  0.4347  0.2416  0.2760
 1727SOL    HW1 5773   3.521   3.092   2.528 -0.9562 -0.8301 -0.0648
 1727SOL    HW2 5774   3.524   3.211   2.622  2.4289 -0.8064 -0.0713
 1728SOL     OW 5775   3.408   2.485   0.013  0.4737  0.2522  0.6555
 1728SOL    HW1 5776   3.434   2.536  -0.064 -0.5028 -0.5174 -0.2033
 1728SOL    HW2 5777   3.478   2.420   0.024  0.9671  0.8041  0.8602
 1729SOL     OW 5778   2.870   2.270   2.394  0.1532  0.7131 -0.2717
 1729SOL    HW1 5779   2.797   2.240   2.449 -2.1827  0.3552 -3.2780
 1729SOL    HW2 5780   2.878   2.363   2.412 -0.0917  0.4744  1.1326
 1730SOL     OW 5781   1.911   2.914   0.050 -0.2836 -0.1354  0.2076
 1730SOL    HW1 5782   1.858   2.836   0.066  2.0338 -2.7472 -3.4693
 1730SOL    HW2 5783   1.884   2.944  -0.036  2.3549 -0.0725 -0.6913
 1731SOL     OW 5784   3.252   3.270   2.395  0.2739 -0.1338 -0.2149
 1731SOL    HW1 5785   3.259   3.320   2.476 -0.6397  1.2866 -0.9725
 1731SOL    HW2 5786   3.179   3.309   2.348  0.1291 -1.5844 -1.2931
 1732SOL     OW 5787   3.423   2.906   0.249  0.7931 -0.3511  0.2177
 1732SOL    HW1 5788   3.514   2.885   0.269  0.8325  1.0048  1.6529
 1732SOL    HW2 5789   3.372   2.851   0.309  0.6339 -1.1460 -0.6184
 1733SOL     OW 5790   4.837   4.350   0.337 -0.0740 -0.2295 -0.9269
 1733SOL    HW1 5791   4.861   4.327   0.247 -1.6966  0.7410 -1.6447
 1733SOL    HW2 5792   4.777   4.424   0.328 -1.0216 -0.7195  0.9059
 1734SOL     OW 5793   1.450   2.216   2.661  0.0489  0.2906  0.6257
 1734SOL    HW1 5794   1.536   2.214   2.620 -0.3594  0.8025 -0.3050
 1734SOL    HW2 5795   1.411   2.298   2.631 -0.6440  0.2154  1.2800
 1735SOL     OW 5796   4.521   1.651   2.164 -0.1687 -0.5221  0.0386
 1735SOL    HW1 5797   4.526   1.680   2.255  0.3068 -0.9960  0.1736
 1735SOL    HW2 5798   4.462   1.713   2.122 -0.0177 -0.0118  0.5615
 1736SOL     OW 5799   2.279   3.274   0.160  0.2765 -0.1479  0.7459
 1736SOL    HW1 5800   2.259   3.197   0.107  1.2342  1.3171 -1.9534
 1736SOL    HW2 5801   2.294   3.240   0.248 -2.2656 -2.6303  0.3412
 1737SOL     OW 5802   3.410   2.542   3.094 -0.2232 -0.4084  0.5225
 1737SOL    HW1 5803   3.348   2.600   3.050 -0.4198 -0.4747  0.7085
 1737SOL    HW2 5804   3.362   2.460   3.104 -0.9634  0.2038  2.7074
 1738SOL     OW 5805   2.630   2.886   2.904  0.0415  0.2075 -0.0342
 1738SOL    HW1 5806   2.655   2.843   2.986  2.0831 -0.1139 -0.7719
 1738SOL    HW2 5807   2.668   2.973   2.909  1.1182 -0.1731 -1.0436
 1739SOL     OW 5808   2.468   2.246   1.781  0.4550  0.1327  0.1519
 1739SOL    HW1 5809   2.527   2.216   1.851 -0.2460 -0.7276  0.3806
 1739SOL    HW2 5810   2.501   2.203   1.702 -0.5971 -1.3598  0.4926
 1740SOL     OW 5811   2.100   3.530   0.073 -0.2824  0.0966 -0.3211
 1740SOL    HW1 5812   2.102   3.593   0.145 -0.2462 -0.8759  0.5561
 1740SOL    HW2 5813   2.159   3.460   0.100 -1.0348 -0.7687 -0.8237
 1741SOL     OW 5814   1.554   3.579   3.119  0.4398 -0.0693 -0.5459
 1741SOL    HW1 5815   1.463   3.557   3.101  0.6158 -0.2679 -1.2133
 1741SOL    HW2 5816   1.588   3.612   3.037  0.7840  0.6653 -0.1169
 1742SOL     OW 5817   3.187   2.076   2.225  0.4490  0.0069 -0.3104
 1742SOL    HW1 5818   3.106   2.046   2.266 -0.2369  1.3300 -0.6184
 1742SOL    HW2 5819   3.251   2.079   2.297  0.5801 -2.1225 -0.2813
 1743SOL     OW 5820   3.570   3.708   3.133 -0.6587  0.3568  0.1758
 1743SOL    HW1 5821   3.582   3.777   3.067 -0.1183  1.1125  1.0346
 1743SOL    HW2 5822   3.496   3.657   3.101  1.2646 -0.9998 -2.4131
 1744SOL     OW 5823   1.520   1.885   0.400  0.4171 -0.1817 -0.0688
 1744SOL    HW1 5824   1.488   1.910   0.486  0.6378  0.0183 -0.0423
 1744SOL    HW2 5825   1.493   1.794   0.389 -0.5372  0.1161 -0.2308
 1745SOL     OW 5826   3.185   3.595   1.971 -0.4211 -0.0098 -0.1938
 1745SOL    HW1 5827   3.097   3.594   1.934 -1.5554 -2.6003  2.1847
 1745SOL    HW2 5828   3.225   3.514   1.938 -0.8087 -1.4197  2.5527
 1746SOL     OW 5829   2.996   4.733   2.580 -0.3196  0.0696  0.3560
 1746SOL    HW1 5830   2.915   4.783   2.585 -0.8448 -0.8546  2.2186
 1746SOL    HW2 5831   3.038   4.763   2.500 -2.5905  0.4302 -0.7905
 1747SOL     OW 5832   3.910   2.272   2.713  0.5247  0.4647  0.2374
 1747SOL    HW1 5833   3.998   2.237   2.721  0.4344  0.2004  0.0842
 1747SOL    HW2 5834   3.875   2.269   2.802  1.3462  2.3925  0.6746
 1748SOL     OW 5835   3.138   3.339   0.820 -0.1401 -0.1289  0.6472
 1748SOL    HW1 5836   3.097   3.345   0.733  1.3481 -0.7752 -0.1316
 1748SOL    HW2 5837   3.102   3.258   0.857  0.1438 -0.5069  0.1172
 1749SOL     OW 5838   2.134   3.730   1.614 -0.1699 -0.3653 -0.4144
 1749SOL    HW1 5839   2.100   3.815   1.642  2.7094  0.8833 -0.4029
 1749SOL    HW2 5840   2.196   3.705   1.683 -0.2608 -2.0281 -0.8977
 1750SOL     OW 5841   3.006   3.539   1.652  0.2651  0.0944  0.2663
 1750SOL    HW1 5842   2.969   3.564   1.737 -2.0724  1.7193 -1.1268
 1750SOL    HW2 5843   2.981   3.610   1.593  1.7948 -1.0001 -1.8082
 1751SOL     OW 5844   3.049   4.230   1.755 -0.3924 -0.0789 -0.2745
 1751SOL    HW1 5845   3.121   4.213   1.816 -0.9947  0.1178  0.5069
 1751SOL    HW2 5846   3.075   4.185   1.675  0.5768 -0.0549  0.0098
 1752SOL     OW 5847   1.378   0.943   2.731  0.0040 -0.0836 -0.0116
 1752SOL    HW1 5848   1.379   1.035   2.705 -0.8033 -0.2005 -0.5049
 1752SOL    HW2 5849   1.451   0.934   2.792 -0.9516  1.2724  1.3903
 1753SOL     OW 5850   3.055   3.451   2.304  0.1536  0.1920  0.4397
 1753SOL    HW1 5851   3.036   3.417   2.216 -1.1261  1.1133  0.3379
 1753SOL    HW2 5852   3.093   3.538   2.289 -2.1893  1.3487  0.7951
 1754SOL     OW 5853   3.535   1.320   2.510  0.1006  0.0187  0.5855
 1754SOL    HW1 5854   3.449   1.324   2.468 -0.4067 -0.2086  1.5462
 1754SOL    HW2 5855   3.598   1.326   2.439 -0.6737  2.7087  0.0227
 1755SOL     OW 5856   3.236   3.117   2.698  0.0619 -0.0639  0.4377
 1755SOL    HW1 5857   3.328   3.118   2.671 -0.1435  0.1221 -0.2628
 1755SOL    HW2 5858   3.207   3.027   2.680  0.0379 -0.0558  0.4364
 1756SOL     OW 5859   3.615   4.301   2.913 -0.2512 -0.0566  0.1373
 1756SOL    HW1 5860   3.687   4.315   2.973 -0.2602 -1.4299  0.5041
 1756SOL    HW2 5861   3.556   4.241   2.959 -2.6507  2.4776  0.6700
 1757SOL     OW 5862   3.314   3.238   3.190  0.3771 -0.2343 -0.4399
 1757SOL    HW1 5863   3.294   3.250   3.098  1.5228 -0.0912 -0.6897
 1757SOL    HW2 5864   3.271   3.311   3.234 -0.5702 -0.5671 -0.7894
 1758SOL     OW 5865   1.930   2.458   1.840 -0.1419 -0.2455 -0.1655
 1758SOL    HW1 5866   1.880   2.537   1.858 -0.8711 -0.5334 -0.8761
 1758SOL    HW2 5867   1.953   2.464   1.748 -2.0896 -1.8691 -0.8318
 1759SOL     OW 5868   3.018   3.290   2.721  0.0709 -0.2034  0.5750
 1759SOL    HW1 5869   3.095   3.236   2.740 -0.0457 -0.0158  1.6328
 1759SOL    HW2 5870   2.984   3.315   2.807  0.0835  1.5169  0.1067
 1760SOL     OW 5871   2.987   2.594   3.214  0.1235 -0.0175 -0.3911
 1760SOL    HW1 5872   3.034   2.523   3.170 -0.4332 -1.3209  1.0039
 1760SOL    HW2 5873   2.901   2.596   3.172 -0.3691 -1.1845  0.4916
 1761SOL     OW 5874   3.269   3.992   3.105  0.3129 -0.1890 -0.4033
 1761SOL    HW1 5875   3.200   3.936   3.068 -2.0334  2.5908 -0.6596
 1761SOL    HW2 5876   3.236   4.016   3.192  1.9631 -0.3455  0.2976
 1762SOL     OW 5877   2.746   2.528   2.988 -0.0157 -0.3283  0.1620
 1762SOL    HW1 5878   2.777   2.610   3.027 -0.8489  0.8886 -1.5868
 1762SOL    HW2 5879   2.657   2.517   3.023  0.3449 -0.8432  0.9136
 1763SOL     OW 5880   1.401   3.168   2.281 -0.2202  0.8982 -0.0628
 1763SOL    HW1 5881   1.373   3.168   2.373  0.4264  0.1984  0.1444
 1763SOL    HW2 5882   1.358   3.091   2.244 -1.6708  2.0011 -0.7376
 1764SOL     OW 5883   3.783   2.259   1.533 -0.3243  0.9163 -0.2632
 1764SOL    HW1 5884   3.690   2.276   1.520 -0.6034 -0.7198 -0.6017
 1764SOL    HW2 5885   3.786   2.187   1.596  0.7526  1.5513  0.4498
 1765SOL     OW 5886   1.970   1.509   1.249 -0.1157 -0.3136 -0.0237
 1765SOL    HW1 5887   2.053   1.486   1.207 -0.9942 -0.7663 -1.6085
 1765SOL    HW2 5888   1.995   1.565   1.322  1.6984 -1.8042  0.5771
 1766SOL     OW 5889   3.118   1.717   2.427 -0.5660 -0.1954 -0.2200
 1766SOL    HW1 5890   3.104   1.807   2.398 -3.2269  0.5926  2.8625
 1766SOL    HW2 5891   3.041   1.670   2.395 -1.6549 -0.1437  2.1148
 1767SOL     OW 5892   1.291   2.553   1.205  0.0594  0.2868 -0.1664
 1767SOL    HW1 5893   1.264   2.554   1.114 -0.9305  0.2530  0.1152
 1767SOL    HW2 5894   1.285   2.644   1.234  1.7363  0.5290 -0.5079
 1768SOL     OW 5895   3.614   2.445   2.946 -0.2313 -0.0074  0.4060
 1768SOL    HW1 5896   3.540   2.487   2.990 -0.0026  1.2422 -0.3559
 1768SOL    HW2 5897   3.684   2.510   2.949  0.4018 -0.6494 -0.0943
 1769SOL     OW 5898   0.986   2.629   1.435 -0.0830  0.0996 -0.4519
 1769SOL    HW1 5899   0.938   2.695   1.485  0.1964  1.4013 -1.8312
 1769SOL    HW2 5900   0.943   2.547   1.456 -1.9427  1.0248 -0.4361
 1770SOL     OW 5901   4.580   3.292   1.932  0.0223 -0.0702  0.3004
 1770SOL    HW1 5902   4.517   3.273   1.862 -0.9417  1.0501  0.8267
 1770SOL    HW2 5903   4.666   3.282   1.890 -0.5240 -0.0750 -0.8707
 1771SOL     OW 5904   3.310   1.989   1.706 -0.3991 -0.2838  0.4056
 1771SOL    HW1 5905   3.316   2.051   1.778  0.0549 -0.9706  0.9778
 1771SOL    HW2 5906   3.216   1.975   1.695 -0.4739 -0.2612  0.9560
 1772SOL     OW 5907   2.304   3.441   3.092 -0.0725  0.0575 -0.1467
 1772SOL    HW1 5908   2.231   3.408   3.144  1.0956  0.3117  1.7402
 1772SOL    HW2 5909   2.263   3.499   3.028 -1.5296  0.3544  0.9872
 1773SOL     OW 5910   2.081   2.008   2.245  0.3425  0.8639 -0.1916
 1773SOL    HW1 5911   2.006   1.969   2.290  0.3507  0.2751 -0.6785
 1773SOL    HW2 5912   2.095   2.091   2.290  0.5242  0.1799  1.0910
 1774SOL     OW 5913   2.040   3.333   1.754  0.3263 -0.4671  0.0014
 1774SOL    HW1 5914   2.064   3.264   1.693  0.5468 -1.0356  0.7222
 1774SOL    HW2 5915   2.115   3.340   1.813  0.4138  0.5587 -0.2069
 1775SOL     OW 5916   1.135   1.594   2.268 -0.3523  0.5164  0.0757
 1775SOL    HW1 5917   1.103   1.681   2.293  0.8641  1.0126 -0.0342
 1775SOL    HW2 5918   1.170   1.557   2.348  1.8866  1.3804 -0.4098
 1776SOL     OW 5919   3.612   2.876   3.283 -0.3342  0.0943  0.2868
 1776SOL    HW1 5920   3.684   2.898   3.224 -0.8521 -0.1209 -0.4355
 1776SOL    HW2 5921   3.534   2.910   3.240 -0.8401 -0.9171  0.3758
 1777SOL     OW 5922   3.276   3.345   1.935  0.8205 -0.7996  0.0293
 1777SOL    HW1 5923   3.319   3.271   1.894  2.9276 -0.5172  1.5497
 1777SOL    HW2 5924   3.341   3.381   1.995 -0.9893  0.7488  1.2150
 1778SOL     OW 5925   4.098   2.246   3.225  0.5452  0.1715  0.7067
 1778SOL    HW1 5926   4.015   2.266   3.269  0.6135  0.5152  0.6846
 1778SOL    HW2 5927   4.075   2.178   3.162  0.0789  0.8937  0.0686
 1779SOL     OW 5928   0.776   4.764   2.109 -0.4591 -0.2554 -0.1960
 1779SOL    HW1 5929   0.832   4.705   2.158 -1.4226 -0.6265  0.4981
 1779SOL    HW2 5930   0.752   4.833   2.171 -1.1295 -0.3482 -0.3381
 1780SOL     OW 5931   3.725   2.016   2.412  0.1633  0.4601 -0.0335
 1780SOL    HW1 5932   3.684   1.985   2.331 -0.0607  1.3929 -0.2868
 1780SOL    HW2 5933   3.705   1.948   2.476 -0.3908  0.1206 -0.5529
 1781SOL     OW 5934   4.042   2.361   1.566 -0.5520 -0.0630  0.2337
 1781SOL    HW1 5935   3.952   2.329   1.557 -0.4585 -0.6252  1.1885
 1781SOL    HW2 5936   4.046   2.437   1.507 -1.7704  0.2218  0.4850
 1782SOL     OW 5937   3.354   1.343   2.090 -0.2800  0.0049 -0.3732
 1782SOL    HW1 5938   3.324   1.405   2.025 -0.1835 -2.0169 -2.4702
 1782SOL    HW2 5939   3.315   1.259   2.064  1.2946 -1.2619  1.0710
 1783SOL     OW 5940   3.251   1.514   2.956  0.9128 -0.1750 -0.0140
 1783SOL    HW1 5941   3.294   1.489   2.874  0.4076 -1.3513  0.0511
 1783SOL    HW2 5942   3.158   1.501   2.939  0.7857 -0.1916  0.6723
 1784SOL     OW 5943   3.063   3.879   2.940  0.8775  0.3224 -0.4187
 1784SOL    HW1 5944   3.111   3.877   2.857  0.1938  0.1120 -0.8167
 1784SOL    HW2 5945   2.972   3.861   2.916  0.4114  1.6912  0.1946
 1785SOL     OW 5946   2.250   3.981   2.781 -0.3272  0.6961 -0.1653
 1785SOL    HW1 5947   2.321   3.951   2.725  0.2817  2.0210 -0.1209
 1785SOL    HW2 5948   2.245   4.075   2.767 -2.1776  0.6317 -0.2705
 1786SOL     OW 5949   3.161   2.535   2.456  0.4352  0.5158 -0.3525
 1786SOL    HW1 5950   3.140   2.611   2.510  1.3902 -0.1488  1.0211
 1786SOL    HW2 5951   3.214   2.479   2.513 -0.6603 -1.4395 -1.1517
 1787SOL     OW 5952   2.674   3.136   2.822  1.0625 -0.2738 -0.6072
 1787SOL    HW1 5953   2.686   3.159   2.730 -0.5646 -2.6039 -1.4865
 1787SOL    HW2 5954   2.621   3.207   2.858  0.2438 -0.1821 -1.9258
 1788SOL     OW 5955   2.773   3.191   2.574 -0.4316  0.2082 -0.3024
 1788SOL    HW1 5956   2.866   3.199   2.597 -0.5856 -1.7538  1.2971
 1788SOL    HW2 5957   2.747   3.279   2.546  1.4998  1.1920  0.7927
 1789SOL     OW 5958   2.338   3.365   2.283 -0.4361 -0.4387  0.9074
 1789SOL    HW1 5959   2.362   3.326   2.198 -1.9097  0.9864 -0.2314
 1789SOL    HW2 5960   2.385   3.312   2.347  0.4666 -1.7993 -0.7681
 1790SOL     OW 5961   3.207   1.147   2.592  0.2546 -0.5509 -0.0978
 1790SOL    HW1 5962   3.266   1.115   2.524 -0.4209 -2.0242 -0.0323
 1790SOL    HW2 5963   3.119   1.137   2.554 -0.0088  0.8239  0.1152
 1791SOL     OW 5964   2.388   3.762   3.181 -0.1005  0.0020 -0.3729
 1791SOL    HW1 5965   2.341   3.678   3.182 -0.3539  0.1438  0.4625
 1791SOL    HW2 5966   2.381   3.794   3.271  0.6806  0.5416 -0.4958
 1792SOL     OW 5967   2.079   2.105   2.002 -0.1796  0.3420  0.0304
 1792SOL    HW1 5968   2.085   2.054   2.083  0.4985  0.2355 -0.0875
 1792SOL    HW2 5969   2.079   2.196   2.031  0.1505  0.3060  0.1442
 1793SOL     OW 5970   0.403   2.821   0.173 -0.1459  0.3303  0.7443
 1793SOL    HW1 5971   0.335   2.754   0.184  0.8913 -0.8262  0.2841
 1793SOL    HW2 5972   0.441   2.831   0.260 -0.7468  0.8204  0.9565
 1794SOL     OW 5973   3.173   3.685   2.249  0.4669 -0.0308 -0.6584
 1794SOL    HW1 5974   3.165   3.669   2.155 -3.0551  0.6400 -0.6191
 1794SOL    HW2 5975   3.168   3.780   2.257  1.2199 -0.0554  0.2192
 1795SOL     OW 5976   3.575   1.754   0.247 -0.3024 -0.2269 -0.2573
 1795SOL    HW1 5977   3.524   1.740   0.167 -1.2495  0.1214  0.2725
 1795SOL    HW2 5978   3.555   1.679   0.302 -0.8204  0.2668  0.2409
 1796SOL     OW 5979   3.575   3.058   2.922 -0.4439 -0.6290 -0.2655
 1796SOL    HW1 5980   3.541   2.981   2.878 -1.4775  0.9257 -2.3442
 1796SOL    HW2 5981   3.497   3.108   2.947  0.1947 -0.3819  1.3311
 1797SOL     OW 5982   2.637   3.844   0.163 -0.1660 -0.1915 -0.4577
 1797SOL    HW1 5983   2.692   3.825   0.088 -0.0363  2.5705 -1.1496
 1797SOL    HW2 5984   2.695   3.888   0.225 -0.6532 -0.9763  0.5903
 1798SOL     OW 5985   2.344   3.795   1.792  0.5927 -0.6500  0.4330
 1798SOL    HW1 5986   2.406   3.858   1.755  0.5139 -0.7200  0.1771
 1798SOL    HW2 5987   2.399   3.732   1.839  0.5973  0.1931  1.5903
 1799SOL     OW 5988   3.163   1.495   3.424 -0.1563 -0.0970  0.0218
 1799SOL    HW1 5989   3.218   1.468   3.351 -0.5680 -0.2902 -0.2203
 1799SOL    HW2 5990   3.092   1.544   3.383  0.8645  1.8722  0.4856
 1800SOL     OW 5991   1.870   3.303   3.547 -0.6840 -0.3791 -0.3571
 1800SOL    HW1 5992   1.889   3.246   3.621 -1.0817 -1.7775 -1.3022
 1800SOL    HW2 5993   1.949   3.300   3.494  0.3976  2.2071  0.9173
 1801SOL     OW 5994   3.287   3.671   3.021 -0.1939  1.0484 -0.5695
 1801SOL    HW1 5995   3.226   3.744   3.008  0.1064  1.5539  0.6913
 1801SOL    HW2 5996   3.232   3.597   3.044 -0.3417  1.6826  1.3137
 1802SOL     OW 5997   2.334   1.365   1.348 -0.2572 -0.7549  0.2599
 1802SOL    HW1 5998   2.291   1.361   1.263  0.5486  0.2694 -0.2204
 1802SOL    HW2 5999   2.311   1.451   1.383 -0.3642 -1.0618  0.9725
 1803SOL     OW 6000   2.093   2.851   3.003  0.4988  0.2107  0.2802
 1803SOL    HW1 6001   2.187   2.837   3.008  0.5173 -0.0180 -0.5225
 1803SOL    HW2 6002   2.065   2.859   3.094  0.9823 -1.8045  0.6678
 1804SOL     OW 6003   0.471   3.537   0.028  0.1441  0.0828  0.2243
 1804SOL    HW1 6004   0.556   3.548   0.072 -0.2075 -0.6833  1.1207
 1804SOL    HW2 6005   0.456   3.621  -0.015  2.1443 -0.3046 -1.3949
 1805SOL     OW 6006   2.823   2.971   2.166 -0.3774  0.5984 -0.2021
 1805SOL    HW1 6007   2.914   2.948   2.184 -0.5928 -0.9913 -0.9583
 1805SOL    HW2 6008   2.784   2.987   2.253  0.3208  0.0909  0.2098
 1806SOL     OW 6009   0.014   2.726   2.019 -0.4747 -0.3602  0.3838
 1806SOL    HW1 6010  -0.031   2.714   2.102  0.1016  1.6420  1.0446
 1806SOL    HW2 6011   0.105   2.702   2.037 -0.1466  0.9819  0.6370
 1807SOL     OW 6012   4.141   1.995   3.401  0.1648  0.1799  0.9537
 1807SOL    HW1 6013   4.108   2.074   3.444 -0.5025  0.0257  0.7469
 1807SOL    HW2 6014   4.063   1.955   3.363  0.6508 -0.0083  0.1234
 1808SOL     OW 6015   4.115   3.799   0.371  0.0508 -0.8018 -0.4048
 1808SOL    HW1 6016   4.117   3.703   0.365  1.1621 -0.9810  1.7069
 1808SOL    HW2 6017   4.201   3.827   0.338 -0.8009 -0.3596 -2.3968
 1809SOL     OW 6018   4.217   3.502   1.543 -0.0036  0.3427 -0.2802
 1809SOL    HW1 6019   4.213   3.441   1.617  0.3612  0.2042 -0.3712
 1809SOL    HW2 6020   4.284   3.566   1.568 -1.4736  1.6636  0.5159
 1810SOL     OW 6021   2.982   2.114   0.631 -0.5520  0.2240  0.0763
 1810SOL    HW1 6022   2.936   2.042   0.674 -2.8197  2.1314  1.0227
 1810SOL    HW2 6023   3.074   2.100   0.654 -0.7024 -2.9504 -0.7290
 1811SOL     OW 6024   2.256   3.130   2.721 -0.4089  0.4270  0.5731
 1811SOL    HW1 6025   2.229   3.159   2.808 -1.9240  1.0575 -0.0689
 1811SOL    HW2 6026   2.199   3.056   2.702  0.1257  0.0989  0.2342
 1812SOL     OW 6027   1.950   2.768   0.547  0.1399  0.2291 -0.4987
 1812SOL    HW1 6028   1.916   2.812   0.469  1.2226  1.1020 -0.5005
 1812SOL    HW2 6029   1.890   2.795   0.617 -0.0726  0.5001 -0.7781
 1813SOL     OW 6030   3.359   1.412   3.172  0.4071  0.2868 -0.2348
 1813SOL    HW1 6031   3.421   1.478   3.203 -1.1796  1.8366 -0.2355
 1813SOL    HW2 6032   3.327   1.446   3.088 -0.5384 -0.4192 -0.1787
 1814SOL     OW 6033   1.317   4.281   2.202 -0.5368  0.2308 -0.3068
 1814SOL    HW1 6034   1.275   4.270   2.117  0.0987  0.0404 -0.5952
 1814SOL    HW2 6035   1.269   4.221   2.260 -0.2033 -0.5170 -0.7931
 1815SOL     OW 6036   2.222   2.969   2.333 -0.6013  0.3773 -0.1539
 1815SOL    HW1 6037   2.246   2.876   2.329  0.1769  0.5054  0.8728
 1815SOL    HW2 6038   2.206   2.994   2.242  0.4671 -0.4494 -0.5952
 1816SOL     OW 6039   1.403   3.914   2.064  0.2694  0.0294 -0.1089
 1816SOL    HW1 6040   1.435   3.825   2.080  0.1684 -0.0980 -0.6008
 1816SOL    HW2 6041   1.472   3.971   2.098 -0.4122 -0.2105  1.7768
 1817SOL     OW 6042   2.250   2.513   0.159  0.0512  0.1465 -0.1742
 1817SOL    HW1 6043   2.284   2.543   0.244 -0.6009 -1.8741  0.8566
 1817SOL    HW2 6044   2.318   2.535   0.096 -0.1505  3.2524  0.5355
 1818SOL     OW 6045   1.836   2.207   3.354 -0.4815  0.4279 -0.0630
 1818SOL    HW1 6046   1.911   2.266   3.339 -0.2180  0.0865 -0.1027
 1818SOL    HW2 6047   1.759   2.263   3.345 -0.1883  1.3817  2.5322
 1819SOL     OW 6048   2.156   2.728   1.884 -0.2368 -0.2540 -0.3330
 1819SOL    HW1 6049   2.213   2.804   1.871 -0.2804 -0.0067  0.7819
 1819SOL    HW2 6050   2.119   2.710   1.798 -0.0021  0.8239 -0.6720
 1820SOL     OW 6051   3.081   1.348   2.138 -0.1816  0.3330  0.0686
 1820SOL    HW1 6052   3.029   1.398   2.201 -0.1661 -0.9513  1.1289
 1820SOL    HW2 6053   3.103   1.412   2.069 -0.4742  1.6817  1.1857
 1821SOL     OW 6054   3.131   4.163   0.494 -0.3364  0.0782 -0.4910
 1821SOL    HW1 6055   3.218   4.126   0.486 -0.1632  0.2248  0.5318
 1821SOL    HW2 6056   3.073   4.088   0.504 -0.3930 -0.0393 -1.6168
 1822SOL     OW 6057   1.126   2.486   3.417 -0.0318  0.4359 -0.0207
 1822SOL    HW1 6058   1.046   2.500   3.366  0.1825 -0.1713 -0.5422
 1822SOL    HW2 6059   1.183   2.436   3.359  0.2854 -0.1318  0.7554
 1823SOL     OW 6060   3.353   2.279   3.217  0.3192  0.0792 -0.7028
 1823SOL    HW1 6061   3.272   2.259   3.263  0.1219  1.5408 -0.3618
 1823SOL    HW2 6062   3.421   2.275   3.284  0.8475 -2.7388 -1.2766
 1824SOL     OW 6063   3.030   1.528   1.804  0.4162  0.0356  0.3065
 1824SOL    HW1 6064   2.950   1.490   1.840  1.7527 -1.9986  1.3039
 1824SOL    HW2 6065   3.009   1.546   1.712 -1.2403 -0.2324  0.6039
 1825SOL     OW 6066   1.328   4.539   3.230  0.4656 -0.5228  0.0737
 1825SOL    HW1 6067   1.293   4.542   3.319  1.3858 -0.9116  0.4631
 1825SOL    HW2 6068   1.358   4.449   3.219  1.3852 -0.1969 -0.2191
 1826SOL     OW 6069   3.168   2.774   3.301 -0.1997  0.3387  0.0607
 1826SOL    HW1 6070   3.248   2.729   3.329  0.0517  1.1338  0.6639
 1826SOL    HW2 6071   3.109   2.704   3.274  0.8892 -0.2325 -0.9207
 1827SOL     OW 6072   2.829   1.744   2.556  0.0691 -0.5479  0.1136
 1827SOL    HW1 6073   2.810   1.812   2.491  0.0913  0.8133  1.5030
 1827SOL    HW2 6074   2.924   1.746   2.566 -0.0449  0.2504  1.2133
 1828SOL     OW 6075   3.848   4.045   2.892  0.2715 -0.2616 -0.0263
 1828SOL    HW1 6076   3.927   4.071   2.845 -0.0366 -0.6126 -0.7514
 1828SOL    HW2 6077   3.840   4.109   2.963  0.9195  0.0819 -0.2576
 1829SOL     OW 6078   3.978   3.611   2.261  0.4888 -0.5413  0.0260
 1829SOL    HW1 6079   4.021   3.694   2.283 -0.5416 -0.6575  2.9169
 1829SOL    HW2 6080   3.938   3.626   2.175 -0.0690  2.1305  0.6708
 1830SOL     OW 6081   1.506   3.633   2.054  0.1075  0.1972  0.3089
 1830SOL    HW1 6082   1.449   3.565   2.090 -2.5573  0.9428 -2.1361
 1830SOL    HW2 6083   1.530   3.601   1.967 -0.9263  2.1692 -0.7521
 1831SOL     OW 6084   3.498   2.303   1.505 -0.3349  0.3145 -0.4052
 1831SOL    HW1 6085   3.462   2.347   1.583 -0.0215 -2.0926  1.2100
 1831SOL    HW2 6086   3.422   2.263   1.463 -0.1672 -1.0909  0.5475
 1832SOL     OW 6087   3.020   3.707   0.041 -0.5452 -0.3937 -0.0352
 1832SOL    HW1 6088   3.091   3.689  -0.021 -1.5285 -0.2911 -1.2406
 1832SOL    HW2 6089   3.038   3.649   0.115  1.3306  0.3540  0.1445
 1833SOL     OW 6090   2.961   3.051   3.068 -0.9169  0.6376  0.3413
 1833SOL    HW1 6091   3.020   3.106   3.119  2.4877 -0.4369 -2.0229
 1833SOL    HW2 6092   2.919   3.112   3.006  3.2559  0.8796 -2.6585
 1834SOL     OW 6093   2.252   2.743   3.418 -0.3571  0.0061 -0.0216
 1834SOL    HW1 6094   2.309   2.700   3.482 -0.1787  0.5586  0.1896
 1834SOL    HW2 6095   2.170   2.694   3.424 -0.0303 -0.5562 -0.0626
 1835SOL     OW 6096   2.734   4.101   2.257 -0.4717  0.0451 -0.0836
 1835SOL    HW1 6097   2.715   4.159   2.330  1.0658  0.5673 -0.0527
 1835SOL    HW2 6098   2.776   4.025   2.297 -1.6815 -0.7169 -0.2142
 1836SOL     OW 6099   3.011   1.216   0.067  0.0956  0.4723 -0.3891
 1836SOL    HW1 6100   3.026   1.293   0.122  0.5118  1.7135 -2.1539
 1836SOL    HW2 6101   2.918   1.198   0.077  0.5204 -0.6885  2.3483
 1837SOL     OW 6102   4.145   1.394   3.376  0.2959  0.4541 -0.4801
 1837SOL    HW1 6103   4.179   1.461   3.435  1.5555 -0.7158  0.2040
 1837SOL    HW2 6104   4.087   1.341   3.430 -0.1969  0.6232 -0.8445
 1838SOL     OW 6105   2.415   2.755   1.606 -0.2465 -0.2794  0.3618
 1838SOL    HW1 6106   2.488   2.729   1.662  0.4479  0.7055 -0.0567
 1838SOL    HW2 6107   2.394   2.844   1.634 -1.1160 -0.4525  0.2889
 1839SOL     OW 6108   3.297   0.760   3.138  0.2664  0.8195 -0.0849
 1839SOL    HW1 6109   3.264   0.808   3.215  0.3464 -0.2271  0.6247
 1839SOL    HW2 6110   3.241   0.683   3.133  2.1974 -0.7354  0.8371
 1840SOL     OW 6111   3.858   1.817   0.519 -0.1098 -0.8914  0.0196
 1840SOL    HW1 6112   3.859   1.911   0.502 -0.1793 -1.0855 -1.1903
 1840SOL    HW2 6113   3.774   1.801   0.561 -0.4133 -0.5071 -0.4277
 1841SOL     OW 6114   2.662   1.319   2.727 -0.2797  0.6604 -0.2390
 1841SOL    HW1 6115   2.629   1.406   2.748 -0.3824  1.1030 -2.0538
 1841SOL    HW2 6116   2.584   1.270   2.700 -0.1170  0.2143  0.0902
 1842SOL     OW 6117   0.266   3.129   1.518 -0.0780 -0.1459 -0.1585
 1842SOL    HW1 6118   0.203   3.076   1.469 -0.3463 -0.2750  0.3155
 1842SOL    HW2 6119   0.351   3.094   1.493 -0.1882  0.0554 -0.8372
 1843SOL     OW 6120   3.394   1.644   2.441 -0.1548  0.1422  0.5764
 1843SOL    HW1 6121   3.400   1.551   2.419 -0.4926  0.4188 -0.7743
 1843SOL    HW2 6122   3.301   1.658   2.458 -0.2504  0.4157 -0.1417
 1844SOL     OW 6123   1.926   2.759   2.065 -0.0659 -0.1217  0.0959
 1844SOL    HW1 6124   2.001   2.754   2.006  0.4956  1.8201  0.5580
 1844SOL    HW2 6125   1.856   2.711   2.019  0.7497  0.1465 -1.5018
 1845SOL     OW 6126   3.086   2.396   3.059  0.2933 -0.0460  0.3111
 1845SOL    HW1 6127   3.085   2.394   2.964  0.7969  0.8673  0.2733
 1845SOL    HW2 6128   3.049   2.312   3.086 -0.4370 -0.0522 -0.6822
 1846SOL     OW 6129   1.946   3.536   1.580 -0.3651  0.7702 -0.4959
 1846SOL    HW1 6130   2.005   3.610   1.598  0.6290  0.0478 -0.7315
 1846SOL    HW2 6131   1.976   3.467   1.639 -0.1610 -0.0192 -1.4943
 1847SOL     OW 6132   3.346   1.827   2.690 -0.0400  0.0210  0.5052
 1847SOL    HW1 6133   3.422   1.886   2.693 -0.6254  0.8382 -0.3365
 1847SOL    HW2 6134   3.353   1.784   2.605 -0.7463  0.4113  0.2480
 1848SOL     OW 6135   3.214   4.400   2.712  0.4186 -0.0250 -0.4149
 1848SOL    HW1 6136   3.285   4.355   2.758  2.2211  2.3182 -0.6683
 1848SOL    HW2 6137   3.239   4.397   2.620 -1.0587 -1.1423 -0.8178
 1849SOL     OW 6138   1.989   2.632   0.232 -0.3964  0.4568 -0.6081
 1849SOL    HW1 6139   2.058   2.565   0.240  1.0424  2.0053  0.7830
 1849SOL    HW2 6140   2.035   2.715   0.245 -2.5104  1.5603  0.2275
 1850SOL     OW 6141   1.603   2.633   2.362 -0.3283  0.0395 -0.1366
 1850SOL    HW1 6142   1.693   2.637   2.393  0.0291  1.5606 -1.2728
 1850SOL    HW2 6143   1.550   2.630   2.441  0.5838  2.9935  0.6810
 1851SOL     OW 6144   0.788   3.117   1.479 -0.0092  0.2561  0.3493
 1851SOL    HW1 6145   0.771   3.211   1.479  1.3735  0.5270  0.9242
 1851SOL    HW2 6146   0.835   3.101   1.561  1.6886 -0.5530 -0.7200
 1852SOL     OW 6147   3.278   2.776   2.966 -0.8231 -0.4806 -0.3915
 1852SOL    HW1 6148   3.188   2.810   2.968  0.0482  2.1657 -1.2450
 1852SOL    HW2 6149   3.325   2.831   3.029  0.4283 -1.0616 -0.7960
 1853SOL     OW 6150   2.724   1.505   2.487  0.4857  0.3084  0.2006
 1853SOL    HW1 6151   2.733   1.437   2.553  2.1103  0.0890 -0.2067
 1853SOL    HW2 6152   2.765   1.582   2.526  2.0545  0.0028 -0.7475
 1854SOL     OW 6153   3.311   2.901   2.102  0.3312  0.2876 -0.1452
 1854SOL    HW1 6154   3.352   2.816   2.117  0.7216  0.5692  0.4157
 1854SOL    HW2 6155   3.345   2.929   2.016 -0.3326 -0.4212 -0.6510
 1855SOL     OW 6156   2.233   1.457   2.195  0.3288  0.4950  0.4526
 1855SOL    HW1 6157   2.231   1.385   2.133 -0.2357  0.5499  0.4000
 1855SOL    HW2 6158   2.318   1.450   2.238  0.4562  0.0676  0.1338
 1856SOL     OW 6159   3.563   3.803   2.883  0.2055 -0.1527  1.0671
 1856SOL    HW1 6160   3.618   3.876   2.855  0.5903 -1.3395 -1.5971
 1856SOL    HW2 6161   3.482   3.813   2.833  1.3465 -2.9960 -1.7439
 1857SOL     OW 6162   3.397   4.052   0.479 -0.2995  0.4862 -0.1032
 1857SOL    HW1 6163   3.449   4.115   0.429 -0.4500 -0.3886 -1.4096
 1857SOL    HW2 6164   3.375   3.984   0.416 -0.2161 -0.8398  1.2441
 1858SOL     OW 6165   3.291   2.616   2.721  0.0824 -0.2954  0.2914
 1858SOL    HW1 6166   3.313   2.665   2.801  2.2147 -0.4087 -0.1583
 1858SOL    HW2 6167   3.302   2.679   2.650 -0.3981 -0.5626 -0.0219
 1859SOL     OW 6168   2.836   1.454   2.995 -0.5278  0.4883  0.1523
 1859SOL    HW1 6169   2.802   1.364   2.991 -0.1087  0.3042  0.6056
 1859SOL    HW2 6170   2.760   1.507   3.020 -0.4142  0.0241  1.5821
 1860SOL     OW 6171   3.421   2.935   1.831  0.1825 -0.5371 -0.2358
 1860SOL    HW1 6172   3.357   2.938   1.759 -0.3839 -2.4602  0.1376
 1860SOL    HW2 6173   3.504   2.958   1.790 -0.4983  0.7465 -0.9922
 1861SOL     OW 6174   1.915   3.918   1.678  0.0380 -0.5453 -0.1755
 1861SOL    HW1 6175   1.834   3.961   1.706  0.9567  1.2223 -0.0627
 1861SOL    HW2 6176   1.925   3.844   1.738 -1.4223 -0.7440 -0.1294
 1862SOL     OW 6177   3.719   1.917   2.834  0.2370 -0.4220  0.0010
 1862SOL    HW1 6178   3.660   1.944   2.764  1.0995  0.0922 -0.5518
 1862SOL    HW2 6179   3.761   1.999   2.862 -0.3608 -0.5539  1.3916
 1863SOL     OW 6180   1.289   3.679   1.659  0.1269 -0.0212  0.7944
 1863SOL    HW1 6181   1.240   3.718   1.732  0.3904  1.4764  0.1992
 1863SOL    HW2 6182   1.380   3.701   1.678 -0.0165  3.1484 -1.4937
 1864SOL     OW 6183   3.005   3.961   0.160 -0.6367  0.4602  0.1688
 1864SOL    HW1 6184   3.004   3.870   0.130 -1.7298  0.4458  0.2263
 1864SOL    HW2 6185   3.037   4.010   0.084  1.2014 -0.0825  0.5399
 1865SOL     OW 6186   2.536   3.677   1.956  0.4056 -0.3141 -0.3631
 1865SOL    HW1 6187   2.488   3.657   2.036  0.5588 -0.5986 -0.3420
 1865SOL    HW2 6188   2.578   3.595   1.932  1.9304  0.2195  0.3300
 1866SOL     OW 6189   3.781   3.699   2.039 -0.4191 -0.2670  0.1610
 1866SOL    HW1 6190   3.696   3.655   2.034  0.0184 -1.0658 -0.6708
 1866SOL    HW2 6191   3.793   3.738   1.953 -0.1067  0.1687  0.3983
 1867SOL     OW 6192   3.130   2.556   0.338 -0.4920 -0.0138 -0.5031
 1867SOL    HW1 6193   3.073   2.578   0.412  1.9575 -0.5011  1.6696
 1867SOL    HW2 6194   3.114   2.463   0.323  0.3887 -0.4100  0.7999
 1868SOL     OW 6195   2.625   2.464   2.419  0.1187  0.2201  0.4543
 1868SOL    HW1 6196   2.594   2.511   2.497  2.1299 -0.1274  1.5493
 1868SOL    HW2 6197   2.717   2.489   2.411  0.2247 -0.5704 -1.2116
 1869SOL     OW 6198   2.739   3.938   3.418  0.6951  0.2780 -0.2777
 1869SOL    HW1 6199   2.753   4.002   3.347  2.5477  0.2159  0.0023
 1869SOL    HW2 6200   2.657   3.967   3.459  0.3847  1.2140 -1.4808
 1870SOL     OW 6201   3.568   2.794   2.760 -0.0421  0.0701  0.3762
 1870SOL    HW1 6202   3.515   2.812   2.682 -0.2079 -1.9376 -0.0218
 1870SOL    HW2 6203   3.638   2.737   2.729  1.8165  1.7817  1.1065
 1871SOL     OW 6204   1.327   4.176   3.370 -0.2541  0.1924 -0.2758
 1871SOL    HW1 6205   1.253   4.200   3.314 -0.0035 -1.5352 -1.4477
 1871SOL    HW2 6206   1.354   4.090   3.337  2.1471  0.6850  0.2728
 1872SOL     OW 6207   4.738   3.150   3.243 -0.1673 -0.3872 -0.2531
 1872SOL    HW1 6208   4.720   3.070   3.193  1.0177 -1.0663  0.3652
 1872SOL    HW2 6209   4.653   3.174   3.279 -0.7483 -0.7584 -1.3126
 1873SOL     OW 6210   1.712   1.199   0.583  0.1779 -0.0802  0.2399
 1873SOL    HW1 6211   1.806   1.186   0.586  0.0217 -1.4087  0.2876
 1873SOL    HW2 6212   1.694   1.223   0.492  0.7463  2.1337  0.6645
 1874SOL     OW 6213   2.882   2.559   2.696  0.0880  0.2229  0.5375
 1874SOL    HW1 6214   2.849   2.554   2.786 -1.2943  0.0330  0.0416
 1874SOL    HW2 6215   2.846   2.641   2.663  1.5494  0.8769  0.5065
 1875SOL     OW 6216   4.372   1.638   2.513 -0.8708 -0.3816 -0.4839
 1875SOL    HW1 6217   4.309   1.686   2.567 -1.1818  0.1052 -1.2715
 1875SOL    HW2 6218   4.450   1.630   2.569 -0.4751  1.8340 -0.6323
 1876SOL     OW 6219   4.110   3.107   2.627 -0.0495  0.7091 -0.5358
 1876SOL    HW1 6220   4.120   3.049   2.703  0.8722 -0.1064 -1.2635
 1876SOL    HW2 6221   4.160   3.185   2.650 -0.4996  0.8374  0.0450
 1877SOL     OW 6222   2.889   2.546   2.412  0.4156  0.0477  0.1064
 1877SOL    HW1 6223   2.973   2.569   2.373  0.3805  0.1161  0.0729
 1877SOL    HW2 6224   2.890   2.589   2.498  0.4511 -0.0231  0.1420
 1878SOL     OW 6225   2.792   3.242   0.069  0.1271 -0.2222  0.3513
 1878SOL    HW1 6226   2.708   3.283   0.086 -1.3136 -3.3777  1.6163
 1878SOL    HW2 6227   2.838   3.246   0.153  0.6715  0.2567  0.0354
 1879SOL     OW 6228   2.901   1.956   2.113 -0.6026 -0.1705  0.2103
 1879SOL    HW1 6229   2.937   2.040   2.087  0.9781 -0.6103  0.8528
 1879SOL    HW2 6230   2.839   1.933   2.043 -1.2177  1.5940  0.1433
 1880SOL     OW 6231   2.602   1.577   1.964  0.1208 -0.3455  0.1083
 1880SOL    HW1 6232   2.651   1.643   2.015  0.8875  2.2932 -3.5808
 1880SOL    HW2 6233   2.512   1.609   1.965  0.3047  0.2276 -0.8564
 1881SOL     OW 6234   2.617   2.277   2.824  0.0664 -0.1325  0.2528
 1881SOL    HW1 6235   2.522   2.268   2.831  0.2726 -1.8593  1.7366
 1881SOL    HW2 6236   2.640   2.341   2.892  0.0469 -0.4497  0.5599
 1882SOL     OW 6237   0.912   4.336   2.117 -0.3344  0.0690 -0.0968
 1882SOL    HW1 6238   0.913   4.253   2.163 -0.9098  0.0912 -0.0265
 1882SOL    HW2 6239   0.869   4.397   2.178  2.3954  1.1028  0.9547
 1883SOL     OW 6240   2.337   4.252   2.033 -0.3698 -0.5970  0.2124
 1883SOL    HW1 6241   2.299   4.165   2.042 -2.0148  0.1555  1.1885
 1883SOL    HW2 6242   2.310   4.282   1.946  0.7983 -1.3010 -0.4131
 1884SOL     OW 6243   2.305   4.009   3.061  0.5199  0.0425  0.0988
 1884SOL    HW1 6244   2.353   3.926   3.068  3.0270  1.4545  0.9040
 1884SOL    HW2 6245   2.301   4.026   2.967  2.3637  0.2233  0.0070
 1885SOL     OW 6246   3.120   2.832   0.868  0.3336  0.2800  0.2315
 1885SOL    HW1 6247   3.153   2.773   0.936 -0.5442 -2.7424 -1.7967
 1885SOL    HW2 6248   3.146   2.791   0.786 -1.6973  1.8972 -1.3237
 1886SOL     OW 6249   3.034   5.210   2.618 -0.1657 -0.1702 -0.3359
 1886SOL    HW1 6250   3.126   5.203   2.643  0.0564 -0.6820 -1.2467
 1886SOL    HW2 6251   2.986   5.200   2.700  0.5319 -1.6196 -0.0747
 1887SOL     OW 6252   3.183   5.115   0.564 -0.5885 -0.9532 -0.2726
 1887SOL    HW1 6253   3.171   5.053   0.492 -0.6633 -1.4414  0.1532
 1887SOL    HW2 6254   3.095   5.128   0.599 -0.4861 -1.1296  0.0619
 1888SOL     OW 6255   4.029   5.117   1.340 -0.2442  0.2393 -0.0764
 1888SOL    HW1 6256   4.076   5.116   1.424  0.2228  0.8629 -0.3273
 1888SOL    HW2 6257   4.058   5.037   1.296 -1.1606 -0.5523  0.7075
 1889SOL     OW 6258   4.287   4.937   1.766  0.1744 -0.2543  0.0379
 1889SOL    HW1 6259   4.381   4.957   1.765 -0.2955  2.4553  1.8459
 1889SOL    HW2 6260   4.260   4.951   1.856 -2.2620  0.5420 -0.7433
 1890SOL     OW 6261   1.330   4.322   1.487  0.3183 -0.5144 -0.1857
 1890SOL    HW1 6262   1.394   4.371   1.434  0.2200  1.0012  1.0304
 1890SOL    HW2 6263   1.366   4.233   1.490  2.2074  0.2019  0.1724
 1891SOL     OW 6264   1.637   4.029   2.292 -0.1998  0.8704  0.0660
 1891SOL    HW1 6265   1.583   4.085   2.348 -1.2056  1.4433 -1.3995
 1891SOL    HW2 6266   1.630   4.068   2.205  2.2189  0.6743 -0.3020
 1892SOL     OW 6267   2.139   0.715   1.297 -0.3731 -0.0619  0.0924
 1892SOL    HW1 6268   2.192   0.709   1.217  1.4126  0.3657  1.1886
 1892SOL    HW2 6269   2.050   0.695   1.268  0.2476 -0.0876 -1.9660
 1893SOL     OW 6270   4.510   4.947   1.910 -0.7636 -0.6826  0.4601
 1893SOL    HW1 6271   4.582   4.974   1.852 -0.9141  0.2691  0.6904
 1893SOL    HW2 6272   4.543   4.869   1.954  0.5019  0.2315  1.1990
 1894SOL     OW 6273   1.293   5.216   1.055 -0.1828 -0.1696  0.1293
 1894SOL    HW1 6274   1.344   5.138   1.035  0.0044  0.1065 -0.5178
 1894SOL    HW2 6275   1.358   5.281   1.081 -0.0443  0.5675 -1.9232
 1895SOL     OW 6276   3.333   5.214   1.393  0.6782  0.2834  0.1803
 1895SOL    HW1 6277   3.302   5.273   1.462  1.2272  0.6680  0.1067
 1895SOL    HW2 6278   3.326   5.265   1.312  1.5423  0.4052  0.1703
 1896SOL     OW 6279   1.515   3.805   1.746  0.5846  0.3014 -0.2536
 1896SOL    HW1 6280   1.587   3.822   1.686  0.8150  0.2782  0.0093
 1896SOL    HW2 6281   1.527   3.869   1.817  1.3898 -0.8295  0.6805
 1897SOL     OW 6282   2.846   0.024   3.286  0.3725  0.6746  0.0068
 1897SOL    HW1 6283   2.755   0.008   3.310  0.5789 -0.0825  0.2989
 1897SOL    HW2 6284   2.844   0.047   3.193 -0.0584  0.1487 -0.1128
 1898SOL     OW 6285   3.544   5.146   2.298 -0.1779 -0.0426 -0.1353
 1898SOL    HW1 6286   3.568   5.113   2.211 -2.1981 -2.7269  0.2132
 1898SOL    HW2 6287   3.460   5.190   2.285  0.1760  0.7717  0.2545
 1899SOL     OW 6288   2.230   0.239   3.320  0.3743 -0.8133  0.0245
 1899SOL    HW1 6289   2.152   0.211   3.366  0.9400  1.0303  2.2872
 1899SOL    HW2 6290   2.300   0.183   3.353  0.3323 -1.2522 -0.6201
 1900SOL     OW 6291   1.346   4.259   0.087 -0.0935 -0.0805 -0.0144
 1900SOL    HW1 6292   1.340   4.215   0.002  1.0390  2.5400 -1.5748
 1900SOL    HW2 6293   1.434   4.241   0.118  0.3851  1.0189 -0.6738
 1901SOL     OW 6294   3.294   4.268   0.823 -0.5230  0.4952 -0.4555
 1901SOL    HW1 6295   3.335   4.316   0.751 -0.4938  0.7279 -0.2834
 1901SOL    HW2 6296   3.289   4.332   0.894  0.5642 -0.0738  0.1579
 1902SOL     OW 6297   1.682   5.147   3.523 -0.2341  0.2761 -0.6748
 1902SOL    HW1 6298   1.747   5.210   3.554 -0.3041 -0.3120  0.7685
 1902SOL    HW2 6299   1.708   5.064   3.564 -2.1759  0.1431  0.4344
 1903SOL     OW 6300   1.903   5.284   0.037  0.5798 -0.1409 -0.6200
 1903SOL    HW1 6301   1.933   5.355   0.093  1.5809  0.0456 -1.3605
 1903SOL    HW2 6302   1.981   5.258  -0.013 -0.1790 -0.5773 -1.6170
 1904SOL     OW 6303   4.551   4.780   0.887  0.1205 -0.1776 -0.1846
 1904SOL    HW1 6304   4.493   4.783   0.811  1.3641  0.3027 -1.1487
 1904SOL    HW2 6305   4.526   4.700   0.933 -1.7155  0.3286 -0.2075
 1905SOL     OW 6306   3.049   4.951   1.164  0.2838 -0.4578  0.4435
 1905SOL    HW1 6307   2.990   4.896   1.112  0.7478 -0.9134  0.3880
 1905SOL    HW2 6308   3.117   4.978   1.102 -0.4767  1.0312  0.2099
 1906SOL     OW 6309   1.688   4.995   1.859  0.0748 -0.6014  0.4960
 1906SOL    HW1 6310   1.640   5.074   1.833  0.1863 -0.9387 -0.8173
 1906SOL    HW2 6311   1.760   5.027   1.913  0.8161  0.3474 -0.9898
 1907SOL     OW 6312   3.714   4.351   1.423 -0.0037  0.3434  0.4257
 1907SOL    HW1 6313   3.645   4.353   1.357 -0.3664  1.9133  0.8005
 1907SOL    HW2 6314   3.787   4.398   1.383  0.7439 -0.9777  0.1772
 1908SOL     OW 6315   1.434   4.077   1.540  0.2513  0.3589  0.6218
 1908SOL    HW1 6316   1.492   4.001   1.538 -0.0514  0.1208 -1.8467
 1908SOL    HW2 6317   1.491   4.149   1.569  1.5813 -0.0484 -0.8270
 1909SOL     OW 6318   3.897   3.432   0.471  0.0316  0.0858 -0.3929
 1909SOL    HW1 6319   3.986   3.399   0.455  1.0422  1.0147  2.6313
 1909SOL    HW2 6320   3.840   3.361   0.443  1.7847 -1.0796 -1.2045
 1910SOL     OW 6321   0.861   2.840   1.147 -0.5897  0.6271 -0.2783
 1910SOL    HW1 6322   0.782   2.894   1.138 -0.0668  1.3654 -0.5726
 1910SOL    HW2 6323   0.829   2.755   1.175 -1.4307  1.1327  0.3349
 1911SOL     OW 6324   3.150   4.479   3.394  0.8106  0.4156  0.5290
 1911SOL    HW1 6325   3.055   4.485   3.402  0.7685 -0.4013  0.7223
 1911SOL    HW2 6326   3.183   4.549   3.451  0.3582 -0.8026  2.3759
 1912SOL     OW 6327   2.639   4.254   1.656  0.0396 -0.0848  0.7486
 1912SOL    HW1 6328   2.616   4.287   1.568 -0.4163 -2.3144 -0.0181
 1912SOL    HW2 6329   2.662   4.333   1.705  1.3133  1.1656 -1.6548
 1913SOL     OW 6330   3.387   0.137   3.068  0.4517  0.0988  0.2845
 1913SOL    HW1 6331   3.323   0.078   3.107  1.0351 -2.1650 -1.9215
 1913SOL    HW2 6332   3.347   0.224   3.075 -2.5037 -1.1057 -0.3145
 1914SOL     OW 6333   2.514   3.997   0.735  1.2856  0.1644  0.0312
 1914SOL    HW1 6334   2.540   3.905   0.727  4.5355  0.9617 -0.2078
 1914SOL    HW2 6335   2.547   4.038   0.655 -0.6958  1.4706 -0.1839
 1915SOL     OW 6336   1.326   3.382   3.449 -0.4460 -0.1432  0.9665
 1915SOL    HW1 6337   1.407   3.339   3.422 -1.2043 -0.0568 -1.7389
 1915SOL    HW2 6338   1.349   3.428   3.530  2.5704  0.9532 -0.3589
 1916SOL     OW 6339   3.638   5.032   1.555  0.0995 -0.4554 -0.1371
 1916SOL    HW1 6340   3.561   4.975   1.559 -0.2818 -0.0028 -0.8247
 1916SOL    HW2 6341   3.678   5.012   1.470 -0.1346  0.3983 -0.4661
 1917SOL     OW 6342   1.392   3.927   3.226 -0.1956  0.2215 -0.0074
 1917SOL    HW1 6343   1.317   3.870   3.209  0.7282 -0.6643 -1.3590
 1917SOL    HW2 6344   1.435   3.887   3.302 -0.5983  0.2126  0.2172
 1918SOL     OW 6345   1.648   3.883   1.501  0.4796  0.1110  0.5452
 1918SOL    HW1 6346   1.702   3.962   1.505  0.4502  0.0723  2.7904
 1918SOL    HW2 6347   1.676   3.839   1.421  1.9522  1.3623  0.3260
 1919SOL     OW 6348   2.966   0.435   2.171 -0.1794 -0.7513  0.0770
 1919SOL    HW1 6349   2.877   0.441   2.206 -0.1813 -1.0036  0.1171
 1919SOL    HW2 6350   3.012   0.378   2.232  0.2635  0.0928  0.5542
 1920SOL     OW 6351   3.185   0.375   1.266 -0.1068 -0.1147 -0.1628
 1920SOL    HW1 6352   3.231   0.291   1.265 -0.0967 -0.1066 -0.3937
 1920SOL    HW2 6353   3.245   0.436   1.223  0.1857  0.1702  0.6284
 1921SOL     OW 6354   1.956   4.835   0.518  0.2121 -0.3966 -0.0072
 1921SOL    HW1 6355   2.044   4.826   0.482 -0.4797  1.6820 -2.5214
 1921SOL    HW2 6356   1.955   4.922   0.559 -0.9326  0.0796 -0.9800
 1922SOL     OW 6357   1.444   0.119   0.073  0.1520  0.3858  0.3472
 1922SOL    HW1 6358   1.410   0.067   0.000  0.2318  0.2856  0.3824
 1922SOL    HW2 6359   1.436   0.210   0.044 -0.6371  0.3947  0.5549
 1923SOL     OW 6360   2.477   3.646   0.021  0.0140 -0.0164 -0.0750
 1923SOL    HW1 6361   2.558   3.674  -0.022 -0.2660 -0.1362 -0.6893
 1923SOL    HW2 6362   2.486   3.677   0.111  0.3009  0.8643 -0.3980
 1924SOL     OW 6363   3.783   3.711   1.537 -0.5417  0.8274 -0.0701
 1924SOL    HW1 6364   3.804   3.678   1.450  0.1221  0.9974  0.0181
 1924SOL    HW2 6365   3.690   3.693   1.548  0.0677 -2.4100  0.5622
 1925SOL     OW 6366   3.501   4.710   1.880 -0.3592  0.2547 -0.1295
 1925SOL    HW1 6367   3.427   4.702   1.820 -0.0352 -0.0509 -0.4967
 1925SOL    HW2 6368   3.467   4.761   1.953 -1.0057 -0.0887 -0.1781
 1926SOL     OW 6369   3.142   2.298   0.286 -0.0171  0.0976  0.3861
 1926SOL    HW1 6370   3.226   2.257   0.262  0.7569  0.7298  1.8984
 1926SOL    HW2 6371   3.080   2.263   0.222  1.1490 -1.3452 -0.0236
 1927SOL     OW 6372   1.767   0.633   1.641  0.0743  0.1542 -0.1235
 1927SOL    HW1 6373   1.706   0.631   1.567 -2.4021  0.1215  1.7758
 1927SOL    HW2 6374   1.733   0.701   1.698  1.6208 -0.1581  1.2318
 1928SOL     OW 6375   2.087   5.005   1.300 -0.1793 -0.2312  0.5574
 1928SOL    HW1 6376   2.011   4.984   1.247  0.1288  0.7348 -0.3064
 1928SOL    HW2 6377   2.091   4.936   1.366  0.2744 -2.3144 -1.5441
 1929SOL     OW 6378   1.809   4.629   1.966 -0.5814  0.3703 -0.1885
 1929SOL    HW1 6379   1.812   4.677   2.049  0.3470  0.8574 -0.4889
 1929SOL    HW2 6380   1.854   4.686   1.904 -0.9442 -0.1540 -0.9471
 1930SOL     OW 6381   1.207   3.947   1.462  0.0572 -0.3197  0.3407
 1930SOL    HW1 6382   1.258   3.866   1.458  0.1076 -0.3632  1.5088
 1930SOL    HW2 6383   1.269   4.013   1.492 -0.3938 -0.2379  1.1363
 1931SOL     OW 6384   4.313   3.798   3.498  0.2380  0.5849  0.3637
 1931SOL    HW1 6385   4.251   3.866   3.472 -0.2042  0.7935  1.8993
 1931SOL    HW2 6386   4.263   3.717   3.494  0.8659  0.2391 -1.8360
 1932SOL     OW 6387   0.880   4.857   1.871  0.2034  0.6099 -0.0756
 1932SOL    HW1 6388   0.869   4.798   1.946 -0.2293  0.8138  0.0225
 1932SOL    HW2 6389   0.932   4.806   1.809  0.2144  0.2864  0.1937
 1933SOL     OW 6390   2.621   2.668   1.786  0.2297 -0.4234 -0.3200
 1933SOL    HW1 6391   2.667   2.624   1.714 -0.4103 -1.5610 -0.0532
 1933SOL    HW2 6392   2.628   2.608   1.860  1.9283  1.2505  0.9932
 1934SOL     OW 6393   3.224   4.229   2.208 -0.0915  0.2636 -0.2956
 1934SOL    HW1 6394   3.296   4.279   2.171  0.4301 -2.0080 -2.7074
 1934SOL    HW2 6395   3.152   4.240   2.146 -0.4893 -0.6118 -0.0186
 1935SOL     OW 6396   3.803   2.645   3.540  0.5068 -0.4801 -0.7082
 1935SOL    HW1 6397   3.762   2.710   3.483  0.4400  1.5350  1.4440
 1935SOL    HW2 6398   3.895   2.645   3.514  0.8668  1.8031  0.2455
 1936SOL     OW 6399   3.128   3.573   0.264  0.2430 -0.1712 -0.0250
 1936SOL    HW1 6400   3.051   3.552   0.317  0.7824 -0.5976  0.6022
 1936SOL    HW2 6401   3.177   3.491   0.258 -0.8035 -0.6974 -2.9245
 1937SOL     OW 6402   3.623   2.871   1.643 -0.1209  0.0347 -0.2016
 1937SOL    HW1 6403   3.626   2.933   1.571  1.1865  2.2398  1.5961
 1937SOL    HW2 6404   3.661   2.790   1.608 -1.7260  0.2350 -2.5701
 1938SOL     OW 6405   2.991   2.830   1.805  0.0166 -0.4958  0.8663
 1938SOL    HW1 6406   2.976   2.873   1.890 -1.5744 -0.2739  0.5081
 1938SOL    HW2 6407   2.992   2.902   1.742  0.8083 -0.6964  0.6341
 1939SOL     OW 6408   3.257   2.917   1.591  0.1418  0.1514  0.0821
 1939SOL    HW1 6409   3.290   2.836   1.553 -0.4355 -0.4370  0.8009
 1939SOL    HW2 6410   3.162   2.908   1.589  0.0867  0.5169  0.8006
 1940SOL     OW 6411   1.627   0.042   2.196  0.4788 -0.0389 -0.4250
 1940SOL    HW1 6412   1.650   0.034   2.288  1.6413  4.1095 -0.1556
 1940SOL    HW2 6413   1.532   0.054   2.195  0.4393 -0.2882  0.1907
 1941SOL     OW 6414   1.641   4.261   1.586  0.0875 -0.0372 -0.1917
 1941SOL    HW1 6415   1.616   4.336   1.533  0.5757 -1.4297 -2.4992
 1941SOL    HW2 6416   1.706   4.215   1.534  0.5461 -1.5478  1.6023
 1942SOL     OW 6417   3.778   0.464   2.829 -0.4769  0.4638 -0.1276
 1942SOL    HW1 6418   3.790   0.481   2.736 -0.3354  1.6934  0.1062
 1942SOL    HW2 6419   3.866   0.459   2.865 -0.5241  1.7674  0.2303
 1943SOL     OW 6420   1.410   4.769   0.740  0.1626  0.1301  0.2351
 1943SOL    HW1 6421   1.435   4.834   0.674 -0.4764 -0.0071 -0.1538
 1943SOL    HW2 6422   1.387   4.821   0.817 -2.0842  0.5370 -0.6261
 1944SOL     OW 6423   2.255   4.348   0.498  0.8581 -0.3677  0.0504
 1944SOL    HW1 6424   2.337   4.385   0.529  1.5946 -1.0763 -0.9674
 1944SOL    HW2 6425   2.233   4.281   0.563 -0.5983  1.8673  2.0162
 1945SOL     OW 6426   4.417   4.170   3.288  0.0050 -0.2412  0.3095
 1945SOL    HW1 6427   4.390   4.208   3.205  0.8085 -1.0527 -0.3498
 1945SOL    HW2 6428   4.339   4.123   3.319 -0.6004  0.8641  0.5165
 1946SOL     OW 6429   2.369   1.866   0.774  0.1388 -0.3166  0.5241
 1946SOL    HW1 6430   2.317   1.838   0.849  0.8617  0.5864  1.3796
 1946SOL    HW2 6431   2.360   1.961   0.773 -0.2888 -0.3429 -0.8658
 1947SOL     OW 6432   2.346   4.746   1.209 -0.0451  0.0033 -0.4319
 1947SOL    HW1 6433   2.325   4.820   1.151  1.9904  0.2727 -0.9022
 1947SOL    HW2 6434   2.400   4.784   1.278 -0.3627 -0.7690  0.2553
 1948SOL     OW 6435   2.720   0.345   1.490  0.3878  0.3476 -0.0849
 1948SOL    HW1 6436   2.796   0.321   1.436 -0.8329 -0.3366 -1.5762
 1948SOL    HW2 6437   2.735   0.436   1.514  0.6733  0.9080 -2.1884
 1949SOL     OW 6438   2.749   0.263   0.716 -0.2766 -0.1266 -0.5044
 1949SOL    HW1 6439   2.745   0.336   0.654 -1.0211  0.8114  0.6032
 1949SOL    HW2 6440   2.798   0.195   0.670 -1.4984  0.2204 -2.4251
 1950SOL     OW 6441   1.833   4.814   0.779  0.1859 -0.1367 -0.3266
 1950SOL    HW1 6442   1.899   4.750   0.806  1.5061  1.0381 -0.6544
 1950SOL    HW2 6443   1.838   4.813   0.683  0.2988  0.5231 -0.3281
 1951SOL     OW 6444   2.443   3.568   0.435 -0.1475 -0.1124  0.1907
 1951SOL    HW1 6445   2.505   3.496   0.427 -0.9597 -0.6750 -1.3453
 1951SOL    HW2 6446   2.357   3.526   0.437 -0.5470  0.6297  2.6071
 1952SOL     OW 6447   1.816   4.795   2.215 -0.2761 -0.6442  0.3854
 1952SOL    HW1 6448   1.739   4.829   2.259 -2.0857 -3.1506 -0.5922
 1952SOL    HW2 6449   1.839   4.715   2.263  2.2027  0.3577  1.0552
 1953SOL     OW 6450   2.083   3.044   0.833  1.0024  0.1697 -0.5838
 1953SOL    HW1 6451   2.038   3.041   0.917  0.6555  0.7387 -0.7428
 1953SOL    HW2 6452   2.025   3.096   0.777  2.0851  1.3535 -0.6459
 1954SOL     OW 6453   3.323   2.143   0.141  0.8934 -0.1602 -0.0650
 1954SOL    HW1 6454   3.331   2.078   0.070 -1.2454 -2.4385  1.6091
 1954SOL    HW2 6455   3.387   2.115   0.206  1.4614  0.7450 -0.2176
 1955SOL     OW 6456   1.625   4.409   0.055 -0.1518 -0.6565 -0.4112
 1955SOL    HW1 6457   1.673   4.377  -0.021  1.7504 -1.3294  0.9611
 1955SOL    HW2 6458   1.669   4.491   0.078 -0.7506 -0.4198 -0.0972
 1956SOL     OW 6459   3.846   4.488   0.970 -0.0027  0.2789 -0.8601
 1956SOL    HW1 6460   3.795   4.566   0.992 -0.7591 -0.4782  0.2510
 1956SOL    HW2 6461   3.809   4.457   0.887 -1.9185 -0.6323  0.2481
 1957SOL     OW 6462   3.820   3.703   0.448  0.4338 -0.1757  0.0304
 1957SOL    HW1 6463   3.905   3.733   0.415  0.5688 -0.3110  0.2499
 1957SOL    HW2 6464   3.837   3.614   0.479  0.2576 -0.1247  0.2702
 1958SOL     OW 6465   2.427   5.249   0.292 -0.1852 -0.2531  0.9198
 1958SOL    HW1 6466   2.444   5.276   0.202 -0.9492 -1.2778  0.4493
 1958SOL    HW2 6467   2.506   5.274   0.340 -0.5756  2.2239  0.4356
 1959SOL     OW 6468   2.693   4.644   3.527  0.0305 -0.0070 -0.6458
 1959SOL    HW1 6469   2.641   4.613   3.452 -0.4731  0.1032 -0.3465
 1959SOL    HW2 6470   2.726   4.729   3.499 -1.1416  0.5853 -0.3090
 1960SOL     OW 6471   3.411   4.478   3.015 -0.6646  0.1130  0.0254
 1960SOL    HW1 6472   3.472   4.531   3.065  0.2529 -0.0057 -0.9475
 1960SOL    HW2 6473   3.462   4.401   2.988 -1.1878  0.0732 -0.9029
 1961SOL     OW 6474   3.361   3.518   2.806  0.5007 -0.4767 -0.5716
 1961SOL    HW1 6475   3.378   3.559   2.721  2.3408 -1.6720 -0.8208
 1961SOL    HW2 6476   3.352   3.592   2.866  0.8788  0.3585 -1.5043
 1962SOL     OW 6477   2.747   4.418   2.137  0.1356  0.0543 -0.2128
 1962SOL    HW1 6478   2.784   4.475   2.204 -0.6959  0.6885 -0.2796
 1962SOL    HW2 6479   2.654   4.413   2.158 -0.2586  0.7571 -1.6709
 1963SOL     OW 6480   3.870   4.650   0.211  0.2336 -0.3154 -0.1200
 1963SOL    HW1 6481   3.878   4.727   0.154 -0.2843  0.1174  0.3780
 1963SOL    HW2 6482   3.830   4.684   0.291 -1.1192 -1.3098 -0.3436
 1964SOL     OW 6483   3.284   3.711   2.539  0.4317  0.5125 -0.0852
 1964SOL    HW1 6484   3.350   3.645   2.517  1.3781  1.3672  0.1014
 1964SOL    HW2 6485   3.234   3.723   2.458  1.0660  0.4879 -0.4839
 1965SOL     OW 6486   3.066   5.212   2.194  0.1879 -0.6422  0.0357
 1965SOL    HW1 6487   3.151   5.219   2.151  1.5576 -2.1221  2.2843
 1965SOL    HW2 6488   3.072   5.270   2.270 -0.2690 -1.7207  0.9340
 1966SOL     OW 6489   3.945   4.613   2.239 -0.6261 -0.1712 -0.5184
 1966SOL    HW1 6490   3.938   4.522   2.211  0.1323 -0.0004 -1.2870
 1966SOL    HW2 6491   3.854   4.644   2.242 -0.9921 -1.2272  0.7755
 1967SOL     OW 6492   2.916   4.849   3.000 -0.6160 -0.4978 -0.4468
 1967SOL    HW1 6493   2.928   4.755   2.985  0.1751 -0.3495 -0.7879
 1967SOL    HW2 6494   2.839   4.872   2.948 -0.5887 -0.8905 -0.6667
 1968SOL     OW 6495   2.595   3.743   3.012  0.2285  0.7791  0.2417
 1968SOL    HW1 6496   2.546   3.680   2.959  0.9748 -0.2866  0.7840
 1968SOL    HW2 6497   2.546   3.750   3.093  1.1323 -0.6150  0.9582
 1969SOL     OW 6498   2.517   4.459   0.557  0.6196  0.0158  0.0320
 1969SOL    HW1 6499   2.576   4.515   0.607  0.4270  0.0609  0.2133
 1969SOL    HW2 6500   2.574   4.391   0.520  0.6506 -0.5850  1.1146
 1970SOL     OW 6501   2.771   4.304   0.292 -0.0856  0.2808 -0.2794
 1970SOL    HW1 6502   2.758   4.282   0.384 -0.7232 -1.4746 -0.7477
 1970SOL    HW2 6503   2.805   4.223   0.253 -1.4601  0.4485 -1.9220
 1971SOL     OW 6504   0.793   3.645   3.456  0.2989  0.7099  0.0657
 1971SOL    HW1 6505   0.733   3.609   3.521 -1.6233  1.7279 -1.0471
 1971SOL    HW2 6506   0.777   3.739   3.458  1.0104  0.8743 -1.0882
 1972SOL     OW 6507   2.188   3.359   0.475  0.1467 -0.4591  0.2594
 1972SOL    HW1 6508   2.103   3.316   0.463 -0.2348  0.1853  0.5647
 1972SOL    HW2 6509   2.251   3.287   0.483 -0.3706 -0.9450  0.0260
 1973SOL     OW 6510   4.269   4.476   1.867  0.6713 -0.2133  1.1062
 1973SOL    HW1 6511   4.356   4.503   1.840  0.3058 -0.2033 -0.1214
 1973SOL    HW2 6512   4.277   4.460   1.961  2.2287 -1.1694  0.8460
 1974SOL     OW 6513   3.174   5.028   1.908  0.3765  0.0124 -0.5126
 1974SOL    HW1 6514   3.201   5.113   1.943  0.2645 -0.6350  1.2313
 1974SOL    HW2 6515   3.252   4.995   1.863  0.5901  0.7697 -0.7171
 1975SOL     OW 6516   2.809   3.959   0.351 -0.1901  0.0909 -0.2718
 1975SOL    HW1 6517   2.881   3.975   0.289 -1.5073  0.4402 -1.7797
 1975SOL    HW2 6518   2.831   3.875   0.391  1.6404  0.7356  0.1998
 1976SOL     OW 6519   2.656   5.281   1.437 -0.1029 -0.1773  0.0260
 1976SOL    HW1 6520   2.647   5.357   1.380 -0.2638 -0.8010 -0.7929
 1976SOL    HW2 6521   2.738   5.240   1.409  0.1609 -0.1184  0.6958
 1977SOL     OW 6522   1.847   4.449   1.630  0.3015  0.3450 -0.0469
 1977SOL    HW1 6523   1.782   4.383   1.655  0.9467 -0.0669  0.5600
 1977SOL    HW2 6524   1.796   4.514   1.582 -0.0367 -1.4668 -2.2755
 1978SOL     OW 6525   4.479   5.335   1.271 -0.1451  0.3202  0.2952
 1978SOL    HW1 6526   4.409   5.399   1.285  0.1811  0.6297  0.5354
 1978SOL    HW2 6527   4.449   5.256   1.316 -0.1730  0.5700  0.7167
 1979SOL     OW 6528   2.074   2.994   2.073  0.2777 -0.2787 -0.0859
 1979SOL    HW1 6529   2.011   3.059   2.104  0.5902 -0.4819  1.0044
 1979SOL    HW2 6530   2.025   2.912   2.072  0.4958 -0.4280  0.7167
 1980SOL     OW 6531   2.503   3.989   1.740 -0.1940  0.2032  0.8538
 1980SOL    HW1 6532   2.527   4.054   1.806  2.5504 -0.6152  0.8054
 1980SOL    HW2 6533   2.506   4.038   1.657 -0.4174  0.5130  1.0249
 1981SOL     OW 6534   1.440   3.316   0.800  0.5419 -0.3312 -0.0553
 1981SOL    HW1 6535   1.392   3.243   0.840  1.9299 -1.7324 -0.8349
 1981SOL    HW2 6536   1.532   3.295   0.815  1.0015  2.1509  1.1650
 1982SOL     OW 6537   3.031   4.274   0.745  0.0692 -0.1347 -0.3403
 1982SOL    HW1 6538   3.102   4.239   0.798 -0.2263 -0.2965 -0.0465
 1982SOL    HW2 6539   3.064   4.269   0.655 -0.4480 -2.4801 -0.4820
 1983SOL     OW 6540   2.143   4.832   1.477 -0.3900  0.2399  0.0349
 1983SOL    HW1 6541   2.204   4.883   1.530 -0.8524  0.4617  0.3700
 1983SOL    HW2 6542   2.186   4.748   1.463 -0.0031  0.4027  0.2490
 1984SOL     OW 6543   0.479   4.102   1.532  0.2868  0.0677 -0.0503
 1984SOL    HW1 6544   0.515   4.190   1.537  0.5300  0.0222 -0.9084
 1984SOL    HW2 6545   0.427   4.093   1.612 -0.0493  1.1208 -0.1312
 1985SOL     OW 6546   1.404   3.897   0.353 -0.6003 -0.4393 -0.0965
 1985SOL    HW1 6547   1.467   3.875   0.283 -1.9262 -0.1103 -1.4354
 1985SOL    HW2 6548   1.457   3.943   0.418  0.6999 -0.8308 -0.8241
 1986SOL     OW 6549   3.989   0.178   0.867  0.3680  0.5834 -0.5153
 1986SOL    HW1 6550   3.952   0.093   0.888 -0.0734  0.9643  0.2721
 1986SOL    HW2 6551   3.924   0.219   0.810  0.4969  0.4720 -0.7454
 1987SOL     OW 6552   2.683   3.375   0.497  0.0855  0.5472  0.0706
 1987SOL    HW1 6553   2.661   3.375   0.590  2.7260  0.0440  0.7742
 1987SOL    HW2 6554   2.693   3.282   0.475 -0.5962  0.6614 -0.7341
 1988SOL     OW 6555   3.980   3.210   3.401  0.0325  0.2410 -0.4456
 1988SOL    HW1 6556   4.019   3.264   3.333  2.0234 -2.5500 -1.7495
 1988SOL    HW2 6557   3.897   3.181   3.364  0.0562  0.5492 -0.7414
 1989SOL     OW 6558   1.551   4.149   2.079  0.0899 -0.0509  0.5982
 1989SOL    HW1 6559   1.471   4.202   2.092 -0.4663  0.0547 -2.5155
 1989SOL    HW2 6560   1.611   4.208   2.033  1.0892 -0.8869  0.8044
 1990SOL     OW 6561   3.515   4.575   1.275 -0.1093  0.1103  0.1204
 1990SOL    HW1 6562   3.522   4.549   1.183  0.9412 -1.1473  0.5140
 1990SOL    HW2 6563   3.595   4.626   1.291 -0.1264  0.0489  0.4053
 1991SOL     OW 6564   3.280   5.360   1.600 -0.3858 -0.1455  0.2204
 1991SOL    HW1 6565   3.298   5.447   1.564  0.1292  0.0695  0.9838
 1991SOL    HW2 6566   3.229   5.377   1.679  2.4086 -0.2748  2.2175
 1992SOL     OW 6567   1.242   4.435   1.029  0.2821 -0.5093  0.5922
 1992SOL    HW1 6568   1.268   4.377   0.957 -0.4738 -0.6078  0.3970
 1992SOL    HW2 6569   1.324   4.454   1.075  0.9292  0.2610 -0.8073
 1993SOL     OW 6570   3.419   3.367   0.852  0.2098 -0.0331 -0.1761
 1993SOL    HW1 6571   3.428   3.463   0.855  1.8541 -0.1778  0.4691
 1993SOL    HW2 6572   3.331   3.353   0.818 -0.1009  1.7141 -0.2116
 1994SOL     OW 6573   3.978   4.056   3.288  0.3317 -0.2606  0.2665
 1994SOL    HW1 6574   3.934   4.006   3.357  2.2212 -2.3125  0.1062
 1994SOL    HW2 6575   3.909   4.075   3.224 -0.6886 -1.7208  0.8916
 1995SOL     OW 6576   3.429   4.844   2.542  0.7445  0.3034  0.2556
 1995SOL    HW1 6577   3.402   4.881   2.458  2.3361  2.2339  0.5201
 1995SOL    HW2 6578   3.429   4.919   2.602  0.0518 -0.9441  1.9149
 1996SOL     OW 6579   2.501   0.180   1.363 -0.1682 -0.0709  0.5301
 1996SOL    HW1 6580   2.555   0.121   1.311 -1.3480 -1.2302  0.5642
 1996SOL    HW2 6581   2.563   0.227   1.419  0.7241 -2.5212  1.7370
 1997SOL     OW 6582   2.378   4.701   0.611 -0.1878  0.2263  0.4883
 1997SOL    HW1 6583   2.426   4.620   0.594 -0.8596 -0.3333  1.2050
 1997SOL    HW2 6584   2.328   4.717   0.531  0.3715  0.2430  0.1358
 1998SOL     OW 6585   2.548   4.435   1.461 -0.1489 -0.3565 -0.3632
 1998SOL    HW1 6586   2.603   4.511   1.481 -0.5954 -0.4361  1.2866
 1998SOL    HW2 6587   2.465   4.473   1.430  0.4304 -0.2320 -1.8702
 1999SOL     OW 6588   3.238   4.736   1.716  0.0681  0.3222  0.5308
 1999SOL    HW1 6589   3.148   4.739   1.748  0.0565 -0.9749  0.6664
 1999SOL    HW2 6590   3.241   4.658   1.660  0.6641  1.3146 -0.8886
 2000SOL     OW 6591   0.929   4.638   0.272 -0.0008 -0.2505 -0.2945
 2000SOL    HW1 6592   0.941   4.644   0.177 -0.2157  0.6134 -0.2772
 2000SOL    HW2 6593   0.950   4.726   0.305  0.9589 -0.7735  0.5714
 2001SOL     OW 6594   2.641   0.424   1.062 -0.0126 -0.9593 -0.1805
 2001SOL    HW1 6595   2.573   0.483   1.029  0.0021 -0.8005  0.0744
 2001SOL    HW2 6596   2.685   0.473   1.131  0.0769 -1.2239 -0.0461
 2002SOL     OW 6597   2.011   4.625   0.845 -0.5875  0.1944  0.5582
 2002SOL    HW1 6598   2.009   4.560   0.774  1.1466  2.0251 -1.3114
 2002SOL    HW2 6599   2.103   4.628   0.872 -0.5115  2.1344  0.2530
 2003SOL     OW 6600   2.231   4.046   1.578  0.1912 -0.0345  0.2894
 2003SOL    HW1 6601   2.181   4.024   1.500 -2.5756  0.3259  1.8149
 2003SOL    HW2 6602   2.296   3.976   1.586  0.3740 -0.1980 -2.1336
 2004SOL     OW 6603   2.171   3.551   2.031  0.8026  0.6582 -0.0001
 2004SOL    HW1 6604   2.255   3.505   2.025  0.9530  0.8557  0.5611
 2004SOL    HW2 6605   2.174   3.596   2.115 -0.0678  0.2931  0.2315
 2005SOL     OW 6606   3.341   3.899   2.739 -0.0786  0.4006  0.1013
 2005SOL    HW1 6607   3.348   3.845   2.660 -0.1278 -0.3584  0.6010
 2005SOL    HW2 6608   3.285   3.971   2.714 -0.7034 -0.2312 -0.3538
 2006SOL     OW 6609   2.112   5.171   1.988 -0.2848 -1.1967  0.4958
 2006SOL    HW1 6610   2.155   5.111   2.050  0.0442 -0.4063  1.0459
 2006SOL    HW2 6611   2.185   5.215   1.944 -0.5213 -0.2843  1.0002
 2007SOL     OW 6612   2.862   3.980   0.835  0.1738  0.0492  0.4975
 2007SOL    HW1 6613   2.934   4.019   0.884 -0.3060  1.0809  0.3932
 2007SOL    HW2 6614   2.790   4.042   0.845 -0.4170 -0.5209 -0.1741
 2008SOL     OW 6615   1.640   4.603   2.525 -0.0721 -0.1325  1.0022
 2008SOL    HW1 6616   1.586   4.539   2.571  0.1322 -1.6263 -0.7400
 2008SOL    HW2 6617   1.581   4.675   2.506 -1.0181 -0.9582  0.7068
 2009SOL     OW 6618   2.563   4.903   1.735  0.3058  0.2364  0.2820
 2009SOL    HW1 6619   2.656   4.897   1.760  1.6995  0.4771 -4.0611
 2009SOL    HW2 6620   2.540   4.994   1.754  1.2213  0.4260  0.5760
 2010SOL     OW 6621   2.167   0.560   1.513  0.3978  0.7127 -0.1940
 2010SOL    HW1 6622   2.077   0.545   1.542  0.5021  0.0601 -0.2148
 2010SOL    HW2 6623   2.158   0.615   1.435  0.0151  0.5518 -0.2649
 2011SOL     OW 6624   2.009   5.105   1.645 -0.2867  0.7760 -0.0858
 2011SOL    HW1 6625   2.089   5.053   1.638 -0.5860  0.2954  0.0354
 2011SOL    HW2 6626   2.040   5.192   1.670  0.0912  0.1817  1.7139
 2012SOL     OW 6627   3.136   4.881   2.756  0.5966  0.6944  0.0760
 2012SOL    HW1 6628   3.140   4.822   2.832 -1.3277 -0.1305 -0.3826
 2012SOL    HW2 6629   3.075   4.837   2.696  0.9436  2.0393 -1.3111
 2013SOL     OW 6630   2.168   0.630   0.813 -0.1135 -0.1432 -0.1144
 2013SOL    HW1 6631   2.163   0.725   0.823 -0.7144 -0.2061  0.2389
 2013SOL    HW2 6632   2.167   0.615   0.719  0.2898  0.2153 -0.1760
 2014SOL     OW 6633   3.661   4.698   1.024  0.0524 -0.1434  0.6574
 2014SOL    HW1 6634   3.725   4.770   1.023 -0.3022  0.1803  0.9233
 2014SOL    HW2 6635   3.576   4.741   1.014 -0.0411 -0.6894 -1.2087
 2015SOL     OW 6636   3.269   2.107   0.603  0.5372 -0.1242  0.1290
 2015SOL    HW1 6637   3.323   2.081   0.678  0.2689 -2.0568 -0.2790
 2015SOL    HW2 6638   3.311   2.065   0.528 -1.0411 -1.0186 -0.3136
 2016SOL     OW 6639   3.015   4.843   2.049  0.5187 -0.0723 -0.2636
 2016SOL    HW1 6640   3.042   4.923   2.003  0.3630 -0.7853 -1.6698
 2016SOL    HW2 6641   3.088   4.783   2.036 -0.0873 -0.7250 -0.7562
 2017SOL     OW 6642   2.113   4.438   2.809  0.0478  0.0045  0.0958
 2017SOL    HW1 6643   2.025   4.473   2.816 -0.0003 -0.0285 -0.3360
 2017SOL    HW2 6644   2.163   4.506   2.764  0.3325  0.1773  0.6656
 2018SOL     OW 6645   2.278   5.232   1.301 -0.2184 -0.2532  0.2559
 2018SOL    HW1 6646   2.219   5.158   1.286 -0.0340 -0.1412 -1.1772
 2018SOL    HW2 6647   2.299   5.264   1.213  1.6397 -0.0163  0.7440
 2019SOL     OW 6648   2.786   1.079   0.129  0.2745  0.2435 -0.0641
 2019SOL    HW1 6649   2.770   1.003   0.072 -0.7166  1.2666 -1.2298
 2019SOL    HW2 6650   2.713   1.138   0.110  0.6585  1.2067  1.3152
 2020SOL     OW 6651   4.114   3.771   3.262 -0.0297 -0.1994 -0.5090
 2020SOL    HW1 6652   4.047   3.800   3.200  0.1939  0.5084 -0.4206
 2020SOL    HW2 6653   4.162   3.850   3.285 -1.0925 -0.1341  1.7677
 2021SOL     OW 6654   3.442   4.383   0.213  0.9509  0.0570  0.0474
 2021SOL    HW1 6655   3.492   4.395   0.293 -0.0705  2.2312  0.4340
 2021SOL    HW2 6656   3.352   4.371   0.243  0.8258 -1.2420 -0.7359
 2022SOL     OW 6657   0.431   4.424   3.462 -0.0296  0.3585 -0.6413
 2022SOL    HW1 6658   0.368   4.435   3.392 -2.7593 -0.4157  1.4864
 2022SOL    HW2 6659   0.462   4.334   3.452  0.7541  0.7268 -1.6744
 2023SOL     OW 6660   2.072   5.032   0.257  0.2694 -0.1947 -0.3154
 2023SOL    HW1 6661   2.130   5.026   0.181  0.0887 -1.7596 -0.3704
 2023SOL    HW2 6662   2.123   5.079   0.323  0.6411  0.6747 -1.2036
 2024SOL     OW 6663   0.869   5.113   2.004 -0.9647 -0.0020 -0.4753
 2024SOL    HW1 6664   0.823   5.105   2.088  0.4235  0.7317  0.4019
 2024SOL    HW2 6665   0.875   5.023   1.971 -1.7739 -0.2627  0.0738
 2025SOL     OW 6666   3.051   5.286   1.763  0.1335  0.4333 -0.0014
 2025SOL    HW1 6667   3.049   5.360   1.824 -2.9904  1.9601 -1.7488
 2025SOL    HW2 6668   3.007   5.215   1.810 -2.2726  1.6037 -0.3484
 2026SOL     OW 6669   1.894   5.246   1.397  0.3335  0.2981  0.0222
 2026SOL    HW1 6670   1.911   5.165   1.445 -0.8805  0.1347  0.2172
 2026SOL    HW2 6671   1.979   5.272   1.364  0.5262 -2.0074 -1.5483
 2027SOL     OW 6672   3.188   4.967   1.477  0.1113 -0.5356 -0.4336
 2027SOL    HW1 6673   3.241   5.043   1.453  1.2800 -1.3305 -0.4593
 2027SOL    HW2 6674   3.124   5.001   1.539  1.9096  0.1168  1.1574
 2028SOL     OW 6675   1.662   5.256   1.540 -0.3813  0.5654  0.0281
 2028SOL    HW1 6676   1.695   5.275   1.628  0.6636 -0.6437 -0.0725
 2028SOL    HW2 6677   1.738   5.265   1.483 -0.7712  0.1562 -0.5640
 2029SOL     OW 6678   1.669   3.892   0.770  0.2235 -0.0027  0.1380
 2029SOL    HW1 6679   1.685   3.954   0.841  0.4827  0.0508  0.0339
 2029SOL    HW2 6680   1.578   3.863   0.783 -0.3392  1.3507 -0.5307
 2030SOL     OW 6681   2.683   4.279   3.235  0.3903 -0.1571 -0.0043
 2030SOL    HW1 6682   2.737   4.201   3.248  0.1248 -0.3131  0.1776
 2030SOL    HW2 6683   2.598   4.245   3.204  0.3063  0.0657 -0.0229
 2031SOL     OW 6684   2.597   0.163   3.496 -0.2314  0.1632 -0.3696
 2031SOL    HW1 6685   2.537   0.110   3.443 -0.5512 -0.0944  0.2425
 2031SOL    HW2 6686   2.619   0.237   3.440 -0.5501 -0.1173 -0.8722
 2032SOL     OW 6687   1.104   0.534   1.574 -0.1029  0.3573  0.1715
 2032SOL    HW1 6688   1.174   0.473   1.548  0.1027  0.6258  0.0831
 2032SOL    HW2 6689   1.027   0.503   1.526  0.0256  0.2287  0.0433
 2033SOL     OW 6690   0.506   4.069   2.427 -0.0880 -0.1084 -0.1327
 2033SOL    HW1 6691   0.472   4.074   2.338 -0.4705 -0.6492 -0.0211
 2033SOL    HW2 6692   0.490   3.978   2.454 -1.7544  0.5241  1.1744
 2034SOL     OW 6693   3.439   1.566   1.496 -0.2127 -0.6521 -0.2750
 2034SOL    HW1 6694   3.501   1.509   1.541  0.7236  1.0169  0.6770
 2034SOL    HW2 6695   3.440   1.536   1.405  0.6883 -1.7613  0.0778
 2035SOL     OW 6696   3.025   1.902   0.284 -0.0523  0.0207  0.0857
 2035SOL    HW1 6697   3.116   1.900   0.315 -0.6417  1.4353  2.1063
 2035SOL    HW2 6698   2.973   1.878   0.360 -1.3595 -2.9010 -1.5833
 2036SOL     OW 6699   4.615   4.538   0.483 -0.5586  0.0105  0.0031
 2036SOL    HW1 6700   4.676   4.599   0.524 -1.1122 -0.1300  1.0749
 2036SOL    HW2 6701   4.583   4.585   0.406  1.2352 -0.1109 -0.8564
 2037SOL     OW 6702   3.129   3.981   2.292  0.5416  0.2268 -0.4434
 2037SOL    HW1 6703   3.100   4.030   2.215  1.8625  0.0534 -1.0820
 2037SOL    HW2 6704   3.210   4.024   2.319  0.3371 -0.0070  0.5719
 2038SOL     OW 6705   3.681   4.629   1.639  0.4713 -0.0027  0.1522
 2038SOL    HW1 6706   3.710   4.645   1.550  1.0507  0.2003  0.3742
 2038SOL    HW2 6707   3.589   4.656   1.639  0.9457  1.7393  0.0722
 2039SOL     OW 6708   2.537   4.529   3.324 -0.4272 -0.1719 -0.1822
 2039SOL    HW1 6709   2.452   4.506   3.361 -0.2914 -1.3707 -0.5558
 2039SOL    HW2 6710   2.586   4.446   3.323  0.2520  0.2178 -1.2099
 2040SOL     OW 6711   3.742   4.734   1.364 -0.2241  0.0387  0.1040
 2040SOL    HW1 6712   3.833   4.727   1.334 -1.3255 -0.2305 -3.7361
 2040SOL    HW2 6713   3.722   4.828   1.358 -0.5681 -0.0622 -0.3623
 2041SOL     OW 6714   3.939   2.846   0.843  0.1987 -0.4616  0.5611
 2041SOL    HW1 6715   3.984   2.917   0.888  0.9337  0.1300 -1.0216
 2041SOL    HW2 6716   3.857   2.886   0.811  0.1589 -0.5895  0.5028
 2042SOL     OW 6717   3.682   3.347   2.652  0.0202 -0.3966  0.9139
 2042SOL    HW1 6718   3.741   3.291   2.702  0.7825  0.1547  0.6591
 2042SOL    HW2 6719   3.740   3.396   2.594 -0.7492 -0.2538  0.2462
 2043SOL     OW 6720   3.006   3.257   1.892  0.0987  0.3640 -0.2253
 2043SOL    HW1 6721   3.090   3.291   1.924 -0.2950  0.3065  0.9211
 2043SOL    HW2 6722   3.018   3.249   1.797 -0.2666  5.2368 -0.9781
 2044SOL     OW 6723   1.932   4.268   2.298 -0.2458 -0.5184 -0.2943
 2044SOL    HW1 6724   2.026   4.252   2.303 -0.0677 -0.2920 -2.0327
 2044SOL    HW2 6725   1.892   4.194   2.343  0.7373 -1.3022 -0.6649
 2045SOL     OW 6726   4.129   4.096   0.764 -0.7039  0.7035  0.5642
 2045SOL    HW1 6727   4.213   4.051   0.764 -0.2020  1.5461  2.1130
 2045SOL    HW2 6728   4.093   4.080   0.677  0.4617 -0.7513  0.3059
 2046SOL     OW 6729   2.492   4.879   1.419 -0.5357  0.8702 -0.1071
 2046SOL    HW1 6730   2.513   4.823   1.494  1.4646  0.7512 -0.7019
 2046SOL    HW2 6731   2.483   4.967   1.456 -2.7271  0.3853  0.6858
 2047SOL     OW 6732   4.307   0.520   1.368  0.4093 -0.2620 -0.5036
 2047SOL    HW1 6733   4.236   0.568   1.410  1.6522 -0.2003  1.6483
 2047SOL    HW2 6734   4.268   0.484   1.288 -1.9831 -0.1140  0.5303
 2048SOL     OW 6735   4.057   4.568   1.675 -0.0348  0.4627 -0.3286
 2048SOL    HW1 6736   4.114   4.535   1.744 -1.5708  1.0772  1.3152
 2048SOL    HW2 6737   4.029   4.489   1.628 -3.2428 -0.8493  3.2089
 2049SOL     OW 6738   3.634   0.282   1.845  0.6395 -0.1427 -0.0122
 2049SOL    HW1 6739   3.560   0.255   1.899 -0.7926 -0.3483 -1.9629
 2049SOL    HW2 6740   3.690   0.205   1.840 -0.0879 -0.6673 -0.1995
 2050SOL     OW 6741   3.238   4.654   2.079  0.4401 -0.1841  0.7957
 2050SOL    HW1 6742   3.328   4.621   2.088 -0.0608 -1.6845  0.5791
 2050SOL    HW2 6743   3.186   4.576   2.063 -0.8436  0.7321  0.3989
 2051SOL     OW 6744   3.370   0.052   2.771 -0.1201 -0.2971  0.2334
 2051SOL    HW1 6745   3.331   0.041   2.858 -0.2384  2.5464  0.6621
 2051SOL    HW2 6746   3.342   0.140   2.744 -0.7959 -1.4034 -3.1021
 2052SOL     OW 6747   1.131   3.672   0.399  0.1741 -0.6561  0.2141
 2052SOL    HW1 6748   1.168   3.746   0.351  0.5328 -0.7912  0.2798
 2052SOL    HW2 6749   1.156   3.595   0.348  0.0484 -0.7546  0.2998
 2053SOL     OW 6750   3.104   4.117   1.506 -0.0172  0.0623  0.0208
 2053SOL    HW1 6751   3.062   4.077   1.430 -0.4613  0.2651  0.1614
 2053SOL    HW2 6752   3.194   4.084   1.503  0.0973  0.4457 -0.8589
 2054SOL     OW 6753   2.814   0.206   1.051  0.6667 -0.3148  0.4730
 2054SOL    HW1 6754   2.755   0.165   1.115 -0.4320 -1.0728 -0.9746
 2054SOL    HW2 6755   2.772   0.289   1.029  0.1196 -0.8467 -0.5461
 2055SOL     OW 6756   3.042   0.146   3.430  0.2276 -0.2209 -0.4816
 2055SOL    HW1 6757   3.019   0.238   3.418 -0.0681 -0.1582  0.5035
 2055SOL    HW2 6758   2.960   0.099   3.414 -0.1093 -0.1550  0.9040
 2056SOL     OW 6759   3.570   4.350   1.769 -0.4123 -0.2097 -0.3002
 2056SOL    HW1 6760   3.631   4.284   1.736 -2.9490 -1.4676 -3.0232
 2056SOL    HW2 6761   3.617   4.433   1.761  1.8060 -1.3363  0.3119
 2057SOL     OW 6762   2.652   3.046   3.486  0.6110 -0.7751  0.0287
 2057SOL    HW1 6763   2.666   3.124   3.539 -0.8802  0.7396 -1.6625
 2057SOL    HW2 6764   2.739   3.023   3.454  0.8292  1.7727 -1.4861
 2058SOL     OW 6765   2.297   4.660   0.870  0.1137  0.3505 -0.4936
 2058SOL    HW1 6766   2.265   4.750   0.882  0.6637  1.0208 -3.3846
 2058SOL    HW2 6767   2.340   4.661   0.785  0.1030 -2.7013 -0.6303
 2059SOL     OW 6768   3.400   3.279   0.020 -0.1426 -0.1745 -0.3359
 2059SOL    HW1 6769   3.424   3.359  -0.026  1.7063  0.2490  1.2210
 2059SOL    HW2 6770   3.466   3.215  -0.008  2.6076  0.7403  3.3082
 2060SOL     OW 6771   1.900   3.761   0.838  0.9044 -0.4980  0.1665
 2060SOL    HW1 6772   1.836   3.817   0.794  1.8125 -0.9254 -1.7600
 2060SOL    HW2 6773   1.868   3.755   0.928 -2.0064 -1.0412 -0.8104
 2061SOL     OW 6774   3.056   2.805   2.130  0.1188  0.4504 -0.4251
 2061SOL    HW1 6775   3.081   2.720   2.093 -0.0186  0.6166 -0.9012
 2061SOL    HW2 6776   3.137   2.856   2.128  0.4880 -0.0318  0.9151
 2062SOL     OW 6777   2.763   3.208   1.987 -0.0903  0.3552 -0.3145
 2062SOL    HW1 6778   2.851   3.221   1.952 -0.4040  1.3779 -0.7537
 2062SOL    HW2 6779   2.764   3.119   2.023  0.9918  0.2102 -0.6834
 2063SOL     OW 6780   3.668   4.100   2.695  0.3733  0.4279  0.4820
 2063SOL    HW1 6781   3.641   4.191   2.710  4.3327  1.9254 -0.1698
 2063SOL    HW2 6782   3.731   4.083   2.765  0.6126 -1.4081 -0.1497
 2064SOL     OW 6783   2.832   4.622   2.842  0.0268  0.3097  0.0493
 2064SOL    HW1 6784   2.884   4.621   2.762 -1.6083 -1.0749 -1.0824
 2064SOL    HW2 6785   2.841   4.534   2.878 -1.7193 -0.0884 -0.3707
 2065SOL     OW 6786   3.990   5.326   2.959  0.0707 -0.7168 -0.1403
 2065SOL    HW1 6787   4.017   5.389   3.025 -0.3288 -1.3726  0.6716
 2065SOL    HW2 6788   4.034   5.354   2.879 -0.4314  0.8258  0.0877
 2066SOL     OW 6789   2.543   4.262   2.401  0.0653  0.6190  0.4390
 2066SOL    HW1 6790   2.574   4.337   2.453 -1.1096  1.3974  0.0671
 2066SOL    HW2 6791   2.535   4.296   2.312  1.1865 -0.4571 -0.0939
 2067SOL     OW 6792   3.811   4.802   2.061  0.2028 -0.2091  0.2684
 2067SOL    HW1 6793   3.832   4.778   1.970  0.7305  0.5040  0.1972
 2067SOL    HW2 6794   3.812   4.898   2.062 -1.1627 -0.1810  0.7210
 2068SOL     OW 6795   3.433   4.989   1.226  0.0133 -0.3569  0.1896
 2068SOL    HW1 6796   3.477   5.048   1.165  0.8250 -1.9018 -0.7811
 2068SOL    HW2 6797   3.422   5.042   1.306 -0.7930  1.5964 -1.1445
 2069SOL     OW 6798   2.715   4.415   2.537  0.0454 -0.1448  0.0829
 2069SOL    HW1 6799   2.713   4.505   2.506 -0.7896  0.0232  0.5992
 2069SOL    HW2 6800   2.806   4.401   2.565  0.3855  0.2554 -0.7609
 2070SOL     OW 6801   2.263   3.762   3.419  0.4056  0.0013 -0.4796
 2070SOL    HW1 6802   2.262   3.840   3.474 -0.6619  0.2576 -0.8357
 2070SOL    HW2 6803   2.295   3.693   3.476  1.1447  0.6464 -0.0947
 2071SOL     OW 6804   4.476   4.208   2.603 -0.1520 -0.3986 -0.1421
 2071SOL    HW1 6805   4.390   4.216   2.645  0.3918 -0.0874  0.9385
 2071SOL    HW2 6806   4.537   4.197   2.676  0.6092 -1.7443 -0.9372
 2072SOL     OW 6807   3.163   2.978   0.553  0.0978 -0.1550  0.5152
 2072SOL    HW1 6808   3.231   2.912   0.539 -0.0434 -0.1350 -0.3325
 2072SOL    HW2 6809   3.082   2.928   0.559 -0.1357 -0.0415 -1.0451
 2073SOL     OW 6810   5.108   5.159   2.434  0.2908  0.3280  0.1902
 2073SOL    HW1 6811   5.158   5.081   2.458  0.4076  0.7089  1.2039
 2073SOL    HW2 6812   5.017   5.130   2.436  0.3430  0.1754  0.4269
 2074SOL     OW 6813   4.435   4.117   0.193 -0.5480  0.0830 -0.5001
 2074SOL    HW1 6814   4.377   4.193   0.200  1.5760  1.7178  0.4479
 2074SOL    HW2 6815   4.504   4.145   0.134  0.2187 -1.1745 -0.2360
 2075SOL     OW 6816   2.340   4.230   0.265 -0.0288  0.5173  0.5041
 2075SOL    HW1 6817   2.389   4.160   0.309  0.7227  0.1789 -0.8076
 2075SOL    HW2 6818   2.313   4.288   0.335  0.0795 -0.6412  1.5347
 2076SOL     OW 6819   2.980   4.591   1.479 -0.9259 -0.1019  0.8381
 2076SOL    HW1 6820   3.057   4.543   1.508 -0.8964  0.4822  1.7788
 2076SOL    HW2 6821   2.931   4.608   1.559 -1.7439  0.0417  0.3203
 2077SOL     OW 6822   2.684   4.448   0.989 -0.1580 -0.3614 -0.0270
 2077SOL    HW1 6823   2.719   4.507   1.056  0.9079  0.4440 -1.2611
 2077SOL    HW2 6824   2.589   4.453   1.000 -0.0654  1.1426  0.2583
 2078SOL     OW 6825   3.313   3.556   1.693 -0.3150 -0.1379  0.0450
 2078SOL    HW1 6826   3.282   3.634   1.739  0.2172 -0.6703  1.3480
 2078SOL    HW2 6827   3.239   3.496   1.694 -0.5973  0.1937 -0.6095
 2079SOL     OW 6828   2.338   4.641   2.258  0.1465  0.6921 -0.6854
 2079SOL    HW1 6829   2.369   4.698   2.329  0.4323  0.1247 -0.3445
 2079SOL    HW2 6830   2.244   4.632   2.274  0.5257 -1.1425  0.9116
 2080SOL     OW 6831   5.134   3.893   2.667 -0.4226  0.1741  0.5301
 2080SOL    HW1 6832   5.103   3.812   2.625 -1.6809  1.0189 -0.2335
 2080SOL    HW2 6833   5.079   3.962   2.630  1.4007  1.5721  0.2778
 2081SOL     OW 6834   3.742   4.277   2.448  1.0419 -0.5951  0.0490
 2081SOL    HW1 6835   3.832   4.292   2.418  0.4962  1.6862 -0.6307
 2081SOL    HW2 6836   3.731   4.337   2.522  0.2748 -1.3810  0.5909
 2082SOL     OW 6837   2.606   5.331   3.334 -0.1616 -0.5129 -0.7206
 2082SOL    HW1 6838   2.556   5.385   3.273  0.4037  0.5294 -0.2797
 2082SOL    HW2 6839   2.624   5.251   3.285 -3.7488 -1.7416 -0.3402
 2083SOL     OW 6840   4.136   5.351   0.076 -0.3514 -0.0668 -0.4447
 2083SOL    HW1 6841   4.117   5.415   0.007 -1.0798  1.7446  1.3575
 2083SOL    HW2 6842   4.078   5.375   0.148  2.0800 -0.3117  1.7461
 2084SOL     OW 6843   3.223   4.515   0.985 -0.4644  0.8053 -0.4894
 2084SOL    HW1 6844   3.170   4.574   0.931 -0.6238  0.7316 -0.4143
 2084SOL    HW2 6845   3.185   4.521   1.072 -0.5534  0.5027 -0.5061
 2085SOL     OW 6846   3.233   3.956   3.470  0.3427 -0.2193 -0.0988
 2085SOL    HW1 6847   3.303   4.021   3.455 -0.3268  0.7032  0.6469
 2085SOL    HW2 6848   3.153   4.008   3.471 -0.2317 -1.1063  0.2692
 2086SOL     OW 6849   3.334   3.765   0.351  0.2039  0.2814  0.1257
 2086SOL    HW1 6850   3.260   3.708   0.327  0.3238  1.0147 -2.2346
 2086SOL    HW2 6851   3.411   3.708   0.346  0.1169  0.2021 -0.3156
 2087SOL     OW 6852   4.011   4.760   1.232 -0.1542 -0.0480  0.0622
 2087SOL    HW1 6853   4.034   4.782   1.322 -0.7971 -0.6255  0.3742
 2087SOL    HW2 6854   4.084   4.793   1.180 -0.8531  2.4219  0.5344
 2088SOL     OW 6855   2.177   0.940   0.391 -0.2137 -0.4671 -0.4454
 2088SOL    HW1 6856   2.256   0.896   0.421 -0.1252  0.4084  0.6928
 2088SOL    HW2 6857   2.205   0.987   0.313  0.2683 -0.5915 -0.3553
 2089SOL     OW 6858   2.073   3.226   1.505 -0.1481 -0.9249  0.3965
 2089SOL    HW1 6859   2.088   3.133   1.520  0.6955 -1.0349 -0.9800
 2089SOL    HW2 6860   2.018   3.229   1.427  0.0072 -0.2704  0.3057
 2090SOL     OW 6861   4.582   2.446   0.364  0.0202  0.4135 -0.4156
 2090SOL    HW1 6862   4.608   2.361   0.398  0.7817  1.2560  1.2554
 2090SOL    HW2 6863   4.629   2.454   0.281 -0.3906 -0.9393 -0.8047
 2091SOL     OW 6864   3.853   5.376   1.580  0.6698 -0.1199  0.2747
 2091SOL    HW1 6865   3.866   5.366   1.485  0.6621  0.7341  0.1824
 2091SOL    HW2 6866   3.789   5.308   1.602  0.7028 -0.3535 -0.3184
 2092SOL     OW 6867   2.712   4.741   3.244 -0.3004  0.2464  0.4791
 2092SOL    HW1 6868   2.712   4.731   3.149 -0.2597  1.5958  0.3236
 2092SOL    HW2 6869   2.660   4.666   3.276  0.6174 -0.8490 -0.5066
 2093SOL     OW 6870   4.167   3.070   0.859  0.0979  0.1825 -0.3127
 2093SOL    HW1 6871   4.157   3.035   0.770  0.1303  0.2014 -0.3237
 2093SOL    HW2 6872   4.259   3.055   0.881 -0.0699 -0.4573 -0.0143
 2094SOL     OW 6873   4.296   2.132   0.214  0.1945  0.2581  0.3779
 2094SOL    HW1 6874   4.329   2.155   0.127  3.0936  0.9705  1.5561
 2094SOL    HW2 6875   4.273   2.215   0.255 -1.0622 -0.0640  0.3735
 2095SOL     OW 6876   2.870   3.876   2.355  0.0398  0.2789 -0.2775
 2095SOL    HW1 6877   2.946   3.911   2.309  1.6486 -1.4974  0.8746
 2095SOL    HW2 6878   2.825   3.823   2.289  0.7817 -0.0336 -0.5495
 2096SOL     OW 6879   2.844   4.820   0.978  0.3342 -0.2757  0.0007
 2096SOL    HW1 6880   2.757   4.823   0.940 -0.7579  1.0696  2.3980
 2096SOL    HW2 6881   2.842   4.746   1.039  0.4889  0.3863  0.8323
 2097SOL     OW 6882   1.480   4.807   3.510  0.1362 -0.1064  0.2353
 2097SOL    HW1 6883   1.532   4.790   3.588  0.2639 -1.0322 -0.0417
 2097SOL    HW2 6884   1.390   4.791   3.538  0.3735 -3.8128 -0.5857
 2098SOL     OW 6885   2.923   3.588   1.923  0.1481 -0.1044 -0.1784
 2098SOL    HW1 6886   2.863   3.526   1.964 -1.1186 -1.8328 -4.1851
 2098SOL    HW2 6887   2.870   3.667   1.910 -0.2990 -0.5130 -0.8856
 2099SOL     OW 6888   3.668   4.743   2.816 -0.0209  0.1923  0.1068
 2099SOL    HW1 6889   3.591   4.700   2.780 -0.6109  2.9779 -2.3602
 2099SOL    HW2 6890   3.733   4.738   2.746  0.9260  0.6495  0.9222
 2100SOL     OW 6891   3.281   2.123   2.859 -0.3904  0.5186  0.2254
 2100SOL    HW1 6892   3.354   2.181   2.881 -0.1174 -0.4162  1.9398
 2100SOL    HW2 6893   3.313   2.070   2.786  0.3729  0.6202  0.4795
 2101SOL     OW 6894   3.177   3.825   1.630 -0.4306  0.6885  0.0650
 2101SOL    HW1 6895   3.201   3.836   1.538  2.1065 -0.7384  0.4756
 2101SOL    HW2 6896   3.081   3.824   1.630 -0.4892  0.4184 -2.5801
 2102SOL     OW 6897   4.336   2.510   1.630 -0.0352 -0.2244  0.4590
 2102SOL    HW1 6898   4.242   2.508   1.611 -0.2161  1.8140  0.9814
 2102SOL    HW2 6899   4.365   2.596   1.601  1.5908 -0.6400  0.7539
 2103SOL     OW 6900   1.352   0.255   0.775  0.1392  0.6374  0.1830
 2103SOL    HW1 6901   1.421   0.191   0.789 -1.5012 -0.9079  1.7054
 2103SOL    HW2 6902   1.326   0.243   0.683  0.0544 -0.7095  0.3657
 2104SOL     OW 6903   1.115   3.777   2.661  0.1737  0.1363  0.0889
 2104SOL    HW1 6904   1.134   3.845   2.726 -0.3749  0.1906  0.1969
 2104SOL    HW2 6905   1.201   3.745   2.633  0.4537  1.2121 -0.3226
 2105SOL     OW 6906   4.288   3.460   1.845  0.1497  0.3182 -0.0174
 2105SOL    HW1 6907   4.195   3.451   1.865  0.4146 -0.3324  1.0089
 2105SOL    HW2 6908   4.311   3.377   1.802  0.1419  0.7151 -0.8203
 2106SOL     OW 6909   1.352   4.271   0.836 -0.1986  0.0748 -0.2985
 2106SOL    HW1 6910   1.308   4.186   0.840  0.4385 -0.2861 -0.9151
 2106SOL    HW2 6911   1.374   4.283   0.744 -0.8391  1.2058 -0.3283
 2107SOL     OW 6912   3.698   0.518   1.342  1.1531 -0.2660  0.6215
 2107SOL    HW1 6913   3.774   0.509   1.399  2.1088  0.5089 -0.4750
 2107SOL    HW2 6914   3.702   0.442   1.285  2.2454  0.7218 -0.6863
 2108SOL     OW 6915   5.279   3.550   1.464  0.1111  0.1990  0.1410
 2108SOL    HW1 6916   5.370   3.540   1.491 -0.0502 -0.1053  0.5936
 2108SOL    HW2 6917   5.235   3.472   1.497 -0.5390  0.8768  0.9551
 2109SOL     OW 6918   2.504   3.922   2.251  0.0008 -0.0791  0.0746
 2109SOL    HW1 6919   2.569   3.991   2.250  0.0261 -0.0937  0.7797
 2109SOL    HW2 6920   2.550   3.845   2.217  0.0428  0.1762 -0.4580
 2110SOL     OW 6921   2.210   3.371   2.601  0.0392 -0.0180 -0.3946
 2110SOL    HW1 6922   2.228   3.280   2.622  0.8993 -0.0070 -1.0218
 2110SOL    HW2 6923   2.115   3.379   2.605 -0.1670 -1.3505 -1.8928
 2111SOL     OW 6924   1.511   5.296   2.610  0.2676 -0.2480 -0.2260
 2111SOL    HW1 6925   1.535   5.385   2.585  0.3717 -0.5251 -1.1430
 2111SOL    HW2 6926   1.466   5.306   2.694 -0.4893  0.7707 -0.7263
 2112SOL     OW 6927   3.763   4.144   3.158  0.5411  0.2610  0.5578
 2112SOL    HW1 6928   3.744   4.207   3.228  0.6799  0.5507  0.3373
 2112SOL    HW2 6929   3.679   4.101   3.141  0.8617 -1.1383  2.1742
 2113SOL     OW 6930   1.455   0.176   3.075  0.2491 -0.1608 -0.0437
 2113SOL    HW1 6931   1.482   0.175   2.983  0.5249 -0.2165  0.0366
 2113SOL    HW2 6932   1.412   0.261   3.086  0.0618 -0.2263 -0.2677
 2114SOL     OW 6933   3.243   4.108   0.211 -0.2908 -0.1812 -0.7530
 2114SOL    HW1 6934   3.161   4.059   0.220 -0.7837 -0.0596 -3.5274
 2114SOL    HW2 6935   3.220   4.198   0.237 -0.9826 -0.2141 -1.2254
 2115SOL     OW 6936   2.025   4.455   0.631  0.7589  0.0218 -0.0299
 2115SOL    HW1 6937   2.091   4.409   0.580 -0.8605  0.1756 -2.3889
 2115SOL    HW2 6938   1.967   4.495   0.566 -1.9460 -0.4883  1.8953
 2116SOL     OW 6939   3.800   5.038   3.317  0.2461  0.1828  0.0734
 2116SOL    HW1 6940   3.851   5.118   3.311  1.1402 -0.3771 -0.0307
 2116SOL    HW2 6941   3.710   5.067   3.328  0.6643  1.2039  0.9981
 2117SOL     OW 6942   3.845   4.017   2.420 -0.7672  0.0389 -0.0026
 2117SOL    HW1 6943   3.804   3.962   2.353  0.6242  1.1163 -1.8470
 2117SOL    HW2 6944   3.774   4.074   2.451 -1.7791 -1.4861  0.5796
 2118SOL     OW 6945   3.440   4.430   2.054 -0.3288 -0.3684 -0.0395
 2118SOL    HW1 6946   3.497   4.407   2.127  0.0052 -0.1085 -0.2178
 2118SOL    HW2 6947   3.499   4.466   1.988 -0.7733  0.5140  0.0300
 2119SOL     OW 6948   2.310   4.981   0.092 -0.5226  0.9291 -0.0850
 2119SOL    HW1 6949   2.339   5.037   0.020  1.5232 -0.1655 -0.1871
 2119SOL    HW2 6950   2.291   4.897   0.052  0.0472  0.4838  0.5460
 2120SOL     OW 6951   3.086   0.243   0.446 -0.7795  0.7718  0.2709
 2120SOL    HW1 6952   3.096   0.307   0.517 -0.4815 -0.4006  1.3162
 2120SOL    HW2 6953   3.031   0.175   0.482  0.1478 -0.3134 -0.3003
 2121SOL     OW 6954   3.580   4.626   0.125 -0.1608 -0.2429  0.5268
 2121SOL    HW1 6955   3.675   4.615   0.116 -0.1747 -0.0444  0.1031
 2121SOL    HW2 6956   3.548   4.541   0.154  0.1558 -0.2969  0.7201
 2122SOL     OW 6957   3.545   3.625   1.529  0.7775 -0.2407 -0.4161
 2122SOL    HW1 6958   3.550   3.550   1.470  1.1730  1.5985 -2.8976
 2122SOL    HW2 6959   3.457   3.620   1.567  0.9634 -2.1764 -0.1764
 2123SOL     OW 6960   2.885   4.394   0.002 -0.1225  0.3954 -0.4185
 2123SOL    HW1 6961   2.799   4.433   0.017 -0.9895 -1.8687  1.1370
 2123SOL    HW2 6962   2.943   4.437   0.064 -0.7406  0.1958  0.3088
 2124SOL     OW 6963   2.685   4.688   1.539 -0.5956  0.2632 -0.1362
 2124SOL    HW1 6964   2.750   4.728   1.482 -1.0733  0.2601 -0.6859
 2124SOL    HW2 6965   2.722   4.698   1.627  1.2426 -1.7252 -0.5872
 2125SOL     OW 6966   3.114   4.541   1.236 -0.0192 -0.2226  0.2927
 2125SOL    HW1 6967   3.038   4.541   1.294 -0.3272  0.2534 -0.1048
 2125SOL    HW2 6968   3.176   4.601   1.278  0.1233 -0.5719  0.5900
 2126SOL     OW 6969   3.530   1.757   2.989 -0.0491 -0.1089 -0.8421
 2126SOL    HW1 6970   3.506   1.665   2.980 -1.7833  0.3356 -1.1508
 2126SOL    HW2 6971   3.580   1.776   2.909  0.9836 -0.9555 -0.4183
 2127SOL     OW 6972   4.268   5.107   0.071 -0.6607  0.0438 -0.2312
 2127SOL    HW1 6973   4.217   5.188   0.072 -1.0072 -0.1623  1.0226
 2127SOL    HW2 6974   4.356   5.134   0.098 -1.1698 -0.1876  1.8711
 2128SOL     OW 6975   2.606   4.813   0.865  0.4994 -0.0068  0.0141
 2128SOL    HW1 6976   2.605   4.906   0.841 -0.2102  0.4859  1.7660
 2128SOL    HW2 6977   2.534   4.804   0.927  0.2980 -1.8342 -0.4367
 2129SOL     OW 6978   1.843   4.886   1.674  0.1602  0.1377 -0.8326
 2129SOL    HW1 6979   1.782   4.919   1.740  1.7601 -1.5934  1.6947
 2129SOL    HW2 6980   1.902   4.959   1.657 -0.6482  0.7999 -0.8631
 2130SOL     OW 6981   2.324   0.475   1.935 -0.5626 -0.6831 -0.0482
 2130SOL    HW1 6982   2.399   0.533   1.949 -0.3287 -1.4415  2.4779
 2130SOL    HW2 6983   2.334   0.444   1.845  1.6372 -0.0124 -0.0989
 2131SOL     OW 6984   4.795   0.718   0.074 -0.2617  0.0076  0.7019
 2131SOL    HW1 6985   4.843   0.782   0.022 -0.4348  0.2064  0.7853
 2131SOL    HW2 6986   4.834   0.634   0.051  0.4541  0.2119  1.1278
 2132SOL     OW 6987   4.047   4.736   0.792  0.2846 -0.2589  0.2424
 2132SOL    HW1 6988   3.995   4.768   0.866 -0.1385 -0.7122  0.1491
 2132SOL    HW2 6989   4.077   4.650   0.819  0.2315 -0.3770 -0.0636
 2133SOL     OW 6990   3.159   5.237   3.184 -0.4032 -1.1014 -0.3165
 2133SOL    HW1 6991   3.069   5.225   3.214 -0.5382 -1.4830 -0.8667
 2133SOL    HW2 6992   3.175   5.163   3.126 -0.1047 -0.4548 -1.0809
 2134SOL     OW 6993   3.655   4.712   3.102  0.0601  0.4063 -0.3920
 2134SOL    HW1 6994   3.743   4.723   3.139  0.6257  0.1819 -1.6279
 2134SOL    HW2 6995   3.668   4.717   3.008 -0.8027 -2.4747 -0.7652
 2135SOL     OW 6996   2.572   4.738   0.250 -0.0381 -0.5327  0.2536
 2135SOL    HW1 6997   2.557   4.690   0.169 -0.2253  1.5955 -1.0513
 2135SOL    HW2 6998   2.667   4.741   0.259  0.0874  0.9144 -1.0402
 2136SOL     OW 6999   4.672   0.014   0.893 -0.2646  0.3225 -0.1352
 2136SOL    HW1 7000   4.664   0.082   0.959  1.9924  0.1778  0.3903
 2136SOL    HW2 7001   4.686   0.062   0.811 -0.2800  0.4967 -0.0364
 2137SOL     OW 7002   3.965   4.648   2.636 -0.1932 -0.3810  0.4282
 2137SOL    HW1 7003   3.964   4.733   2.679 -0.2928 -0.3457  0.3555
 2137SOL    HW2 7004   3.875   4.635   2.606  0.4222  0.7789 -2.1534
 2138SOL     OW 7005   3.369   0.604   0.800  0.1500  0.0117  0.2369
 2138SOL    HW1 7006   3.368   0.679   0.741 -1.3907  1.0851  1.5210
 2138SOL    HW2 7007   3.460   0.596   0.828  1.2699 -1.5082 -3.3340
 2139SOL     OW 7008   3.207   3.675   3.382  0.0870  0.0460  0.6949
 2139SOL    HW1 7009   3.212   3.763   3.420  0.4225 -0.3265  1.5178
 2139SOL    HW2 7010   3.298   3.651   3.364  0.1768 -0.9064  2.2808
 2140SOL     OW 7011   3.993   0.092   3.464  0.3095 -0.1017 -0.0502
 2140SOL    HW1 7012   3.999   0.097   3.369  2.7534  0.9743  0.0781
 2140SOL    HW2 7013   3.913   0.140   3.486 -2.7468 -3.9298 -1.6658
 2141SOL     OW 7014   1.574   3.274   0.180  0.3216  0.0684 -0.7798
 2141SOL    HW1 7015   1.615   3.250   0.097  1.0710  0.4005 -0.5173
 2141SOL    HW2 7016   1.498   3.217   0.187  0.8615 -0.7187 -1.1749
 2142SOL     OW 7017   1.813   4.462   1.332 -0.2646  0.4728  0.6398
 2142SOL    HW1 7018   1.839   4.459   1.240 -0.7311  1.7189  0.4419
 2142SOL    HW2 7019   1.814   4.555   1.353 -2.4500  0.4161  1.2139
 2143SOL     OW 7020   1.827   4.094   1.490  0.4610  0.0311 -0.2300
 2143SOL    HW1 7021   1.882   4.054   1.557 -0.4439  0.2771  0.6949
 2143SOL    HW2 7022   1.882   4.097   1.412  1.5607 -0.2165  0.5092
 2144SOL     OW 7023   2.425   4.243   3.138  0.4561 -0.4599 -0.2973
 2144SOL    HW1 7024   2.367   4.173   3.106  0.6880  0.0414 -1.9211
 2144SOL    HW2 7025   2.375   4.323   3.122  0.6212 -0.1839  0.5622
 2145SOL     OW 7026   3.343   4.615   3.532 -0.4278  0.1074  0.2800
 2145SOL    HW1 7027   3.417   4.624   3.593  0.0475 -3.1710  0.3677
 2145SOL    HW2 7028   3.385   4.607   3.446 -0.9354  1.4687 -0.1264
 2146SOL     OW 7029   4.247   4.795   1.087 -0.3778 -0.3186 -0.3612
 2146SOL    HW1 7030   4.315   4.729   1.072 -1.1975 -1.2734  0.0016
 2146SOL    HW2 7031   4.295   4.877   1.102  0.7646 -1.2445  1.3138
 2147SOL     OW 7032   2.749   0.118   3.034  0.0047 -0.5553  0.6628
 2147SOL    HW1 7033   2.733   0.068   2.954  3.8473 -4.1281  1.8231
 2147SOL    HW2 7034   2.826   0.171   3.014  0.2776 -0.5741  1.6109
 2148SOL     OW 7035   2.768   3.458   2.104 -0.1831  0.5349  0.1371
 2148SOL    HW1 7036   2.768   3.365   2.081 -0.3635  0.4610  0.4304
 2148SOL    HW2 7037   2.720   3.462   2.187 -1.5728  1.0785 -0.6502
 2149SOL     OW 7038   2.332   4.653   2.829 -0.4318  0.0187 -0.3317
 2149SOL    HW1 7039   2.421   4.648   2.865 -0.6251  1.8290  0.5235
 2149SOL    HW2 7040   2.342   4.628   2.738  0.7688 -0.8954  0.0218
 2150SOL     OW 7041   3.027   3.942   0.625 -0.1804  0.1390 -0.5964
 2150SOL    HW1 7042   2.982   3.876   0.572  0.4900 -1.4649  0.7262
 2150SOL    HW2 7043   2.969   3.955   0.701 -0.3907  1.2407 -0.9246
 2151SOL     OW 7044   3.735   4.438   0.648 -0.1906  0.2320  1.1377
 2151SOL    HW1 7045   3.821   4.401   0.627 -1.2534 -2.5782  1.3110
 2151SOL    HW2 7046   3.691   4.370   0.699 -2.7825  1.2766  0.4779
 2152SOL     OW 7047   3.374   4.710   0.318 -0.0189  0.4140 -0.2289
 2152SOL    HW1 7048   3.414   4.793   0.295  0.0566  0.5044  0.2116
 2152SOL    HW2 7049   3.445   4.646   0.311 -0.3245  0.2015 -1.6022
 2153SOL     OW 7050   3.745   4.706   2.516  0.4145 -0.2841  0.3677
 2153SOL    HW1 7051   3.770   4.790   2.480 -1.4924 -0.4023 -1.4007
 2153SOL    HW2 7052   3.699   4.661   2.445  0.5891 -2.4739  1.5240
 2154SOL     OW 7053   3.306   2.548   1.542  0.6013  0.2916  0.2035
 2154SOL    HW1 7054   3.369   2.549   1.470  0.3446  0.8183 -0.0218
 2154SOL    HW2 7055   3.358   2.567   1.620  0.8622 -0.1596  0.1410
 2155SOL     OW 7056   1.784   4.182   0.343  0.0292  0.5142 -0.2501
 2155SOL    HW1 7057   1.871   4.148   0.360 -0.1766  0.0716 -0.0673
 2155SOL    HW2 7058   1.798   4.262   0.292  0.5172  0.2187 -0.5803
 2156SOL     OW 7059   1.869   4.926   1.156 -0.3888  0.0812  0.7977
 2156SOL    HW1 7060   1.906   4.840   1.174  0.0430  0.1309  0.1936
 2156SOL    HW2 7061   1.783   4.907   1.118  0.5829 -0.1953 -1.4209
 2157SOL     OW 7062   3.326   3.260   2.905  0.4697  0.1730  0.6822
 2157SOL    HW1 7063   3.296   3.213   2.827  0.9128 -1.0119  1.1924
 2157SOL    HW2 7064   3.353   3.345   2.873 -1.9620  0.7596 -0.0330
 2158SOL     OW 7065   3.297   3.218   1.608  0.2812 -0.1903 -0.1581
 2158SOL    HW1 7066   3.328   3.242   1.521  1.8929  0.3198  0.5026
 2158SOL    HW2 7067   3.311   3.124   1.613 -1.5196 -0.5403 -1.0584
 2159SOL     OW 7068   3.889   4.837   0.999  0.7189  0.5611  0.3979
 2159SOL    HW1 7069   3.935   4.916   0.972 -0.2864  1.5298  1.4145
 2159SOL    HW2 7070   3.921   4.820   1.088 -0.6443  1.1009  1.0161
 2160SOL     OW 7071   3.304   4.644   2.386 -0.4443 -0.2922  0.2088
 2160SOL    HW1 7072   3.340   4.720   2.431 -1.9953  0.0471  0.9489
 2160SOL    HW2 7073   3.244   4.681   2.321 -1.4932 -0.8619  0.8231
 2161SOL     OW 7074   3.207   0.101   1.122 -0.3181 -0.2424 -0.4618
 2161SOL    HW1 7075   3.124   0.124   1.164  0.6000  0.0684  1.2515
 2161SOL    HW2 7076   3.185   0.093   1.029 -1.6554  3.1479 -0.5764
 2162SOL     OW 7077   3.372   2.632   2.140  0.9905 -0.3280  0.3407
 2162SOL    HW1 7078   3.411   2.575   2.074 -0.2040 -1.1988  0.3709
 2162SOL    HW2 7079   3.334   2.573   2.205  1.7847  0.5050  1.6245
 2163SOL     OW 7080   3.371   3.857   1.808  0.0099  0.1308  0.1562
 2163SOL    HW1 7081   3.347   3.828   1.896  1.7136  0.1687  0.6652
 2163SOL    HW2 7082   3.290   3.852   1.759 -1.2283  1.1098  1.9862
 2164SOL     OW 7083   2.777   0.076   0.191 -0.5762  0.0681 -0.3471
 2164SOL    HW1 7084   2.869   0.052   0.181 -0.5069  0.1058  0.2048
 2164SOL    HW2 7085   2.735   0.043   0.111 -0.0210  0.3776 -0.7796
 2165SOL     OW 7086   3.019   3.271   1.620 -0.1295  0.2290  0.5250
 2165SOL    HW1 7087   3.004   3.366   1.623  0.1859  0.3192 -0.4008
 2165SOL    HW2 7088   3.113   3.262   1.605 -0.1435 -0.2330  0.6941
 2166SOL     OW 7089   3.959   5.254   3.346 -0.1528  0.3353 -0.3708
 2166SOL    HW1 7090   3.963   5.332   3.290  0.2315  1.4742  1.1685
 2166SOL    HW2 7091   4.048   5.245   3.380 -0.5211  0.0925  0.5684
 2167SOL     OW 7092   3.515   3.551   2.561 -0.1447 -0.1431  0.4474
 2167SOL    HW1 7093   3.537   3.466   2.598  0.0752 -0.1440  0.3137
 2167SOL    HW2 7094   3.587   3.571   2.502 -0.6683 -0.3068 -0.2536
 2168SOL     OW 7095   2.272   4.989   1.677 -0.2103 -0.9135  0.0305
 2168SOL    HW1 7096   2.308   4.987   1.765 -0.1587 -2.3438  0.0020
 2168SOL    HW2 7097   2.338   5.035   1.625 -1.0867  1.6919  1.0363
 2169SOL     OW 7098   3.090   4.705   0.821 -0.2497  0.5775 -0.0247
 2169SOL    HW1 7099   3.130   4.715   0.735  0.9477 -0.1308  0.4226
 2169SOL    HW2 7100   3.002   4.669   0.803 -0.3691  1.3203 -0.9817
 2170SOL     OW 7101   4.325   4.698   2.764 -0.5513  0.3564  0.2475
 2170SOL    HW1 7102   4.384   4.773   2.755  0.5625 -0.4100  1.0473
 2170SOL    HW2 7103   4.264   4.723   2.834 -0.5300  0.7181  0.1399
 2171SOL     OW 7104   2.339   4.567   2.580 -0.6684  0.1856  0.1119
 2171SOL    HW1 7105   2.280   4.548   2.507  0.1941  1.3076 -0.9125
 2171SOL    HW2 7106   2.382   4.483   2.598 -0.1677  0.0994 -1.3516
 2172SOL     OW 7107   2.636   5.447   1.186  0.1114 -0.2447  0.1029
 2172SOL    HW1 7108   2.636   5.359   1.148 -0.1185 -0.1462 -0.1298
 2172SOL    HW2 7109   2.577   5.497   1.130 -1.2243 -0.4166  1.2894
 2173SOL     OW 7110   4.333   3.711   2.195  0.0597  0.1746  0.0659
 2173SOL    HW1 7111   4.294   3.736   2.112  2.3022  0.1861 -1.0522
 2173SOL    HW2 7112   4.378   3.628   2.177  0.7903  0.3056  1.1742
 2174SOL     OW 7113   1.222   4.793   0.072  0.2895 -0.4104  0.4396
 2174SOL    HW1 7114   1.214   4.880   0.109  0.4446  0.0367 -0.5486
 2174SOL    HW2 7115   1.211   4.734   0.147 -2.7126  0.3628  0.7366
 2175SOL     OW 7116   3.543   4.212   2.228  0.0016  0.6443 -0.5175
 2175SOL    HW1 7117   3.466   4.180   2.276  0.4385 -0.1203 -0.3157
 2175SOL    HW2 7118   3.610   4.223   2.295  0.6613 -0.5773 -0.9513
 2176SOL     OW 7119   2.773   3.861   2.617 -0.3567  0.0591  0.1148
 2176SOL    HW1 7120   2.853   3.817   2.645 -0.1332  0.5339  0.2279
 2176SOL    HW2 7121   2.786   3.877   2.523 -0.3569  0.0553  0.1141
 2177SOL     OW 7122   2.757   4.306   0.558  0.1425 -0.0640 -0.2219
 2177SOL    HW1 7123   2.819   4.348   0.617 -0.0972 -1.6273  1.2224
 2177SOL    HW2 7124   2.719   4.234   0.610 -2.4947  0.5088 -1.1988
 2178SOL     OW 7125   3.788   4.458   0.024 -0.7290  0.3995  0.0403
 2178SOL    HW1 7126   3.833   4.452  -0.059 -1.5454  2.7743 -0.6694
 2178SOL    HW2 7127   3.840   4.519   0.076 -1.1385  0.2792  0.6111
 2179SOL     OW 7128   2.880   4.652   1.727 -0.2833 -0.4967  0.2441
 2179SOL    HW1 7129   2.879   4.576   1.786  1.3777  0.6595  1.8776
 2179SOL    HW2 7130   2.852   4.725   1.782 -0.0666  0.3905 -0.7868
 2180SOL     OW 7131   3.194   0.811   2.311 -0.4560 -0.4667 -0.1784
 2180SOL    HW1 7132   3.182   0.782   2.221  1.3454 -0.7588 -0.3758
 2180SOL    HW2 7133   3.205   0.906   2.304 -1.1567 -0.3815 -0.1580
 2181SOL     OW 7134   2.591   5.091   0.853  0.1436 -0.3884  0.5133
 2181SOL    HW1 7135   2.652   5.116   0.784  0.8840 -3.0614  0.0972
 2181SOL    HW2 7136   2.506   5.083   0.809  0.2077 -0.1505  0.3463
 2182SOL     OW 7137   1.023   3.634   0.019  0.0642  0.0066  0.2064
 2182SOL    HW1 7138   0.985   3.692   0.084 -0.3020 -0.7034  0.6345
 2182SOL    HW2 7139   0.955   3.623  -0.047 -0.1687 -0.5636  0.5310
 2183SOL     OW 7140   3.572   3.625   0.349 -0.2037 -0.2102  0.1413
 2183SOL    HW1 7141   3.594   3.562   0.279  1.7559 -1.1141  1.4804
 2183SOL    HW2 7142   3.654   3.671   0.366 -0.8964  0.6626  1.2138
 2184SOL     OW 7143   4.236   5.198   3.329 -0.2133  0.3671  0.1900
 2184SOL    HW1 7144   4.273   5.199   3.417  0.8617  3.0845 -0.2021
 2184SOL    HW2 7145   4.281   5.269   3.283 -0.9376 -0.7904 -2.4938
 2185SOL     OW 7146   3.362   5.018   2.731  0.5182  0.7928  0.4593
 2185SOL    HW1 7147   3.281   4.967   2.739  0.5929  0.8325  1.7375
 2185SOL    HW2 7148   3.396   5.023   2.820  1.6264  1.2893  0.0327
 2186SOL     OW 7149   2.892   4.840   0.519 -0.1294 -0.6298 -0.2814
 2186SOL    HW1 7150   2.870   4.931   0.541 -0.9689 -0.8474 -0.1887
 2186SOL    HW2 7151   2.934   4.845   0.434 -0.6291 -0.1981 -0.5082
 2187SOL     OW 7152   1.447   4.712   2.756 -0.3237 -0.2952 -0.1459
 2187SOL    HW1 7153   1.411   4.708   2.667 -1.6465  0.6853  0.3108
 2187SOL    HW2 7154   1.410   4.635   2.800  0.1096 -0.6283 -0.3583
 2188SOL     OW 7155   5.805   3.383   0.598 -0.0499 -0.3603  0.1536
 2188SOL    HW1 7156   5.721   3.426   0.615  0.3874  2.1009 -2.8867
 2188SOL    HW2 7157   5.820   3.328   0.674 -3.5064  0.5366  1.6758
 2189SOL     OW 7158   3.903   4.368   2.976 -0.1622  0.1385 -0.3293
 2189SOL    HW1 7159   3.883   4.386   3.068  0.5475 -0.6336 -0.0142
 2189SOL    HW2 7160   3.997   4.353   2.974  0.1436  1.9571 -1.4962
 2190SOL     OW 7161   2.690   4.671   2.407 -0.2441  0.4230  0.2367
 2190SOL    HW1 7162   2.608   4.719   2.419 -0.3690  0.2385  0.1186
 2190SOL    HW2 7163   2.709   4.679   2.313 -0.4993 -0.1372  0.1324
 2191SOL     OW 7164   2.360   5.350   1.046 -0.5849 -0.0327 -0.3380
 2191SOL    HW1 7165   2.324   5.331   0.960  0.6700 -1.1900 -0.6459
 2191SOL    HW2 7166   2.365   5.446   1.049  0.6200  0.0267 -2.1405
 2192SOL     OW 7167   2.386   3.619   2.808 -0.2976  0.2691 -0.4435
 2192SOL    HW1 7168   2.294   3.595   2.821  0.2894 -0.6704  2.7729
 2192SOL    HW2 7169   2.386   3.714   2.808 -1.3272  0.2869 -1.1663
 2193SOL     OW 7170   1.747   4.882   3.467  0.3858 -0.4053  0.1465
 2193SOL    HW1 7171   1.654   4.871   3.444  0.1241  1.8237 -0.0104
 2193SOL    HW2 7172   1.794   4.860   3.387 -0.0612 -0.4600 -0.1054
 2194SOL     OW 7173   3.428   4.966   2.999  0.0431  0.3330  0.1681
 2194SOL    HW1 7174   3.519   4.976   3.026 -0.6656  2.5446  2.0712
 2194SOL    HW2 7175   3.390   4.908   3.066 -0.2701  0.6386  0.2586
 2195SOL     OW 7176   2.475   4.020   3.523 -0.0474  0.2817  0.4854
 2195SOL    HW1 7177   2.479   4.112   3.551 -0.9799  0.6668 -0.5476
 2195SOL    HW2 7178   2.421   3.977   3.589  0.9880  0.3063  1.3686
 2196SOL     OW 7179   4.174   4.227   2.213  0.0225  0.2622 -0.0194
 2196SOL    HW1 7180   4.211   4.200   2.129  1.5705  1.2681  0.3118
 2196SOL    HW2 7181   4.230   4.186   2.279  1.2640  2.5709  0.4895
 2197SOL     OW 7182   2.544   4.466   1.842  0.3154  0.2132 -0.4370
 2197SOL    HW1 7183   2.450   4.466   1.826  0.5052  0.4574 -1.6738
 2197SOL    HW2 7184   2.556   4.404   1.914 -0.8643  0.7883  0.2868
 2198SOL     OW 7185   2.295   4.042   0.886  0.0048 -0.1000 -0.1720
 2198SOL    HW1 7186   2.277   3.953   0.857 -0.1225  0.2923 -1.3358
 2198SOL    HW2 7187   2.387   4.056   0.862 -0.7116  0.9912 -2.4799
 2199SOL     OW 7188   2.304   5.040   3.182 -0.3434 -0.5492 -0.0288
 2199SOL    HW1 7189   2.247   5.074   3.113  1.0064  1.0381 -0.4213
 2199SOL    HW2 7190   2.332   4.954   3.150  0.7625  0.4184 -1.8319
 2200SOL     OW 7191   2.231   3.946   2.296 -0.1439  0.1628 -0.3422
 2200SOL    HW1 7192   2.205   3.959   2.205 -1.3205 -0.0078 -0.0415
 2200SOL    HW2 7193   2.326   3.933   2.292 -0.2921 -0.6829 -1.6271
 2201SOL     OW 7194   3.362   2.955   3.166  0.2994 -0.0089  0.1973
 2201SOL    HW1 7195   3.354   3.050   3.168 -0.3852 -0.0469 -0.2793
 2201SOL    HW2 7196   3.306   2.925   3.237 -1.2846 -0.1353 -1.0502
 2202SOL     OW 7197   0.917   4.630   3.538 -0.1503 -0.5560  0.0639
 2202SOL    HW1 7198   0.978   4.561   3.511 -0.0814 -0.4063 -0.1636
 2202SOL    HW2 7199   0.913   4.689   3.463 -1.0259 -0.8689 -0.1554
 2203SOL     OW 7200   3.110   3.438   0.569  0.3656  0.0138  0.1136
 2203SOL    HW1 7201   3.029   3.488   0.560 -0.6173 -1.2614  1.4095
 2203SOL    HW2 7202   3.179   3.504   0.566 -0.8009  1.3021  0.4193
 2204SOL     OW 7203   2.214   4.236   2.309 -0.0493 -0.2391  0.2576
 2204SOL    HW1 7204   2.249   4.153   2.340  0.6574  0.0867  0.3461
 2204SOL    HW2 7205   2.275   4.265   2.241 -0.5492 -0.0212 -0.1107
 2205SOL     OW 7206   4.733   0.262   0.089 -0.0855  0.2209  0.3204
 2205SOL    HW1 7207   4.651   0.254   0.137 -0.8859  2.0665 -0.6428
 2205SOL    HW2 7208   4.730   0.191   0.024  0.3705 -1.4075  1.9889
 2206SOL     OW 7209   3.188   4.469   1.634 -0.5280  0.8778  0.2330
 2206SOL    HW1 7210   3.156   4.391   1.678 -0.2481  1.0117  0.6806
 2206SOL    HW2 7211   3.269   4.442   1.592  0.2916  1.2471  1.5170
 2207SOL     OW 7212   4.049   0.954   0.395 -0.4164 -0.3055  0.4580
 2207SOL    HW1 7213   4.099   0.958   0.477  2.5317 -0.9486 -1.1687
 2207SOL    HW2 7214   4.017   1.043   0.383  0.7425  0.2700  1.3924
 2208SOL     OW 7215   1.625   0.546   0.575 -0.3327 -0.7891  0.7971
 2208SOL    HW1 7216   1.581   0.514   0.655  0.4777 -0.2932  1.4578
 2208SOL    HW2 7217   1.706   0.586   0.607 -0.4233  0.2339 -0.1901
 2209SOL     OW 7218   4.284   5.302   2.457 -0.0232  0.3507 -0.2765
 2209SOL    HW1 7219   4.326   5.338   2.379  0.0425  0.5005 -0.1721
 2209SOL    HW2 7220   4.212   5.248   2.423  0.5414 -0.2939 -0.4840
 2210SOL     OW 7221   3.670   4.103   1.985  0.2473 -0.2450 -0.6185
 2210SOL    HW1 7222   3.755   4.111   2.029  0.0001 -0.5205 -0.0840
 2210SOL    HW2 7223   3.609   4.148   2.043 -0.4295 -2.2453  0.3123
 2211SOL     OW 7224   3.351   4.165   1.816 -0.5537  0.3034  0.5764
 2211SOL    HW1 7225   3.398   4.093   1.856 -0.4420  0.7038  1.1814
 2211SOL    HW2 7226   3.413   4.238   1.816 -0.5785  0.3428 -0.2535
 2212SOL     OW 7227   2.902   5.173   2.878  0.0537 -0.2370 -0.4256
 2212SOL    HW1 7228   2.964   5.149   2.948 -0.5183  0.7789  0.4657
 2212SOL    HW2 7229   2.837   5.104   2.878 -0.0294 -0.1648  0.1729
 2213SOL     OW 7230   2.564   0.303   2.761  0.1347 -0.4843 -0.1181
 2213SOL    HW1 7231   2.655   0.280   2.742  0.1207 -0.1346 -0.6380
 2213SOL    HW2 7232   2.570   0.373   2.827  0.2758  0.0530 -0.6876
 2214SOL     OW 7233   1.846   4.601   3.457  0.0384  0.0623  0.2917
 2214SOL    HW1 7234   1.827   4.661   3.385  0.6096  0.7095  0.6545
 2214SOL    HW2 7235   1.878   4.659   3.527  0.2001 -0.6295  0.7968
 2215SOL     OW 7236   2.526   5.189   3.061  0.5935  0.1564  0.2998
 2215SOL    HW1 7237   2.473   5.139   3.124 -1.7063 -0.2517 -1.8085
 2215SOL    HW2 7238   2.544   5.127   2.991  0.6835  1.3292 -0.7401
 2216SOL     OW 7239   4.981   0.175   0.218 -0.1532 -0.3243 -0.7656
 2216SOL    HW1 7240   4.986   0.094   0.167 -0.6482 -1.1984  0.5311
 2216SOL    HW2 7241   4.895   0.211   0.198 -0.2646 -0.5574 -0.7085
 2217SOL     OW 7242   1.656   4.394   2.810 -0.1209 -0.9421  0.1077
 2217SOL    HW1 7243   1.678   4.479   2.848 -2.5105 -1.1010  2.1092
 2217SOL    HW2 7244   1.606   4.415   2.731 -1.3251 -0.4322  0.9806
 2218SOL     OW 7245   3.313   4.367   2.480 -0.3651  0.4860  0.3587
 2218SOL    HW1 7246   3.336   4.448   2.434 -2.6927  1.2573  0.3972
 2218SOL    HW2 7247   3.375   4.302   2.447  0.4646  1.8843 -0.9779
 2219SOL     OW 7248   3.716   3.549   2.835  0.2868  0.1373 -0.2245
 2219SOL    HW1 7249   3.693   3.473   2.782 -0.5118  0.8456 -0.9081
 2219SOL    HW2 7250   3.633   3.597   2.846  0.5470  0.3134  1.1683
 2220SOL     OW 7251   3.137   2.253   2.516  0.1263 -0.2062 -0.3501
 2220SOL    HW1 7252   3.050   2.235   2.478  0.1835  1.3758 -1.3081
 2220SOL    HW2 7253   3.119   2.300   2.597  0.0394 -2.7141  1.1945
 2221SOL     OW 7254   4.436   0.355   0.123 -0.1109 -0.0470 -0.0220
 2221SOL    HW1 7255   4.463   0.370   0.033 -0.0633  1.2650  0.1976
 2221SOL    HW2 7256   4.344   0.329   0.117 -0.3597  0.8803 -0.4062
 2222SOL     OW 7257   0.528   5.409   0.789 -0.6624 -0.3740 -0.2010
 2222SOL    HW1 7258   0.566   5.487   0.828 -0.4999 -1.0618  1.0717
 2222SOL    HW2 7259   0.506   5.435   0.700 -0.2029  0.9825  0.0581
 2223SOL     OW 7260   2.350   4.982   0.661 -0.0956  0.2432  0.2348
 2223SOL    HW1 7261   2.372   4.890   0.643  1.2983  0.5195  0.4362
 2223SOL    HW2 7262   2.329   5.019   0.576 -1.6389 -0.4693  0.2529
 2224SOL     OW 7263   3.093   3.445   3.196 -0.4728 -0.1099 -0.2749
 2224SOL    HW1 7264   3.030   3.400   3.251  0.3872  0.2188  1.0374
 2224SOL    HW2 7265   3.128   3.515   3.251  0.3659  0.3002 -1.2708
 2225SOL     OW 7266   3.395   4.182   1.538  0.1225 -0.2581  0.4828
 2225SOL    HW1 7267   3.420   4.273   1.523  0.7812 -0.4037  0.6580
 2225SOL    HW2 7268   3.397   4.172   1.633 -0.9834 -0.1813  0.5309
 2226SOL     OW 7269   2.066   4.168   3.432  0.3511  0.1375 -0.1006
 2226SOL    HW1 7270   2.047   4.140   3.343  1.7165  0.4281 -0.5120
 2226SOL    HW2 7271   2.041   4.094   3.487  0.1668 -0.3175 -0.7949
 2227SOL     OW 7272   3.484   3.507   3.399 -0.1267 -0.0532 -0.5313
 2227SOL    HW1 7273   3.512   3.595   3.423 -2.1627  1.0383 -1.8768
 2227SOL    HW2 7274   3.551   3.475   3.339  0.8178  0.4009  0.2553
 2228SOL     OW 7275   4.013   4.311   2.408 -0.4034 -0.7143 -0.1348
 2228SOL    HW1 7276   4.061   4.274   2.334 -1.3815 -1.4101 -0.4404
 2228SOL    HW2 7277   4.064   4.286   2.485 -0.4887 -1.8144 -0.4186
 2229SOL     OW 7278   3.871   4.756   1.768  0.0646  0.7130  0.2116
 2229SOL    HW1 7279   3.931   4.682   1.773  0.5155  0.9511 -1.1362
 2229SOL    HW2 7280   3.793   4.721   1.725 -0.2886  0.6913  0.8610
 2230SOL     OW 7281   3.938   3.208   2.214 -0.0582 -0.0419  0.5620
 2230SOL    HW1 7282   4.020   3.165   2.190  0.3601  0.7151  0.6196
 2230SOL    HW2 7283   3.964   3.293   2.249 -0.9110  0.5258 -0.1283
 2231SOL     OW 7284   1.461   5.106   0.126 -0.0158  0.0673  0.0187
 2231SOL    HW1 7285   1.406   5.136   0.053 -0.2914 -0.1824  0.1221
 2231SOL    HW2 7286   1.549   5.102   0.089 -0.2462 -0.6297 -0.4767
 2232SOL     OW 7287   3.253   1.685   0.087 -0.0669  0.0265  0.5544
 2232SOL    HW1 7288   3.241   1.609   0.030  0.1211  0.1834  0.2995
 2232SOL    HW2 7289   3.175   1.739   0.071  0.9052  1.0314 -1.0781
 2233SOL     OW 7290   4.008   5.362   0.322 -0.4862  0.5391  0.1447
 2233SOL    HW1 7291   3.977   5.386   0.409  1.8467  0.3924  1.0885
 2233SOL    HW2 7292   4.019   5.267   0.326 -1.0404  0.4416 -0.5526
 2234SOL     OW 7293   3.858   5.424   0.557 -0.2585  0.3000  0.3397
 2234SOL    HW1 7294   3.805   5.399   0.633 -2.6152  0.5133 -1.1140
 2234SOL    HW2 7295   3.843   5.518   0.548 -2.5245 -0.1475 -2.0222
 2235SOL     OW 7296   7.298   1.880   3.448 -0.1948  0.1362 -0.3775
 2235SOL    HW1 7297   7.230   1.946   3.435  0.8060  1.0144 -1.2985
 2235SOL    HW2 7298   7.259   1.818   3.510 -1.8988  0.5164 -1.0074
 2236SOL     OW 7299   3.614   0.235   0.439 -0.1477  0.0270 -0.4443
 2236SOL    HW1 7300   3.569   0.276   0.366 -0.5306  0.0386 -0.2039
 2236SOL    HW2 7301   3.660   0.160   0.400 -3.2596 -2.2023 -0.1955
 2237SOL     OW 7302   5.288   0.832   2.673  0.2960  0.4634  0.5243
 2237SOL    HW1 7303   5.374   0.870   2.692  0.3496  0.5107  0.1843
 2237SOL    HW2 7304   5.254   0.886   2.602  0.0863  0.2922  0.4963
 2238SOL     OW 7305   5.979   0.014   0.691  0.1823  0.2693 -0.2149
 2238SOL    HW1 7306   6.074   0.004   0.686  0.5746  1.7756  2.3541
 2238SOL    HW2 7307   5.951   0.023   0.600  2.5126  0.0609 -1.0305
 2239SOL     OW 7308   3.811   0.821   0.394 -0.1225  0.2861  0.6098
 2239SOL    HW1 7309   3.768   0.851   0.315 -0.4674  1.1744  1.1285
 2239SOL    HW2 7310   3.900   0.857   0.389  0.3969 -1.0200 -0.1504
 2240SOL     OW 7311   3.092   0.427   0.654 -0.4144  0.2113 -0.1840
 2240SOL    HW1 7312   3.097   0.371   0.732  2.5374 -1.6149 -1.5429
 2240SOL    HW2 7313   3.091   0.516   0.689 -0.0571 -0.5651  1.9586
 2241SOL     OW 7314   4.198   0.147   1.584  0.0488 -0.0997 -0.0180
 2241SOL    HW1 7315   4.281   0.162   1.538 -0.3966 -0.1123 -0.8405
 2241SOL    HW2 7316   4.132   0.186   1.527 -0.1389  4.9333  3.0652
 2242SOL     OW 7317   6.344   5.105   1.195  0.1990  0.0434  0.0730
 2242SOL    HW1 7318   6.386   5.148   1.269  1.1265 -1.2012  0.3022
 2242SOL    HW2 7319   6.402   5.122   1.120  0.3499 -0.4104  0.0782
 2243SOL     OW 7320   2.606   1.521   0.322  0.6102 -0.0079  0.1675
 2243SOL    HW1 7321   2.515   1.490   0.318  0.1874  0.9414  1.7117
 2243SOL    HW2 7322   2.601   1.613   0.296  1.4596 -0.4295 -1.6705
 2244SOL     OW 7323   4.105   1.080   1.562  0.0991 -0.7864 -0.0677
 2244SOL    HW1 7324   4.137   1.114   1.646 -1.3578  0.4921  0.0137
 2244SOL    HW2 7325   4.183   1.079   1.506  0.7663 -0.0003  0.8048
 2245SOL     OW 7326   2.126   1.029   2.789  0.0020 -0.0371 -0.1727
 2245SOL    HW1 7327   2.176   1.095   2.741 -0.4620  0.4185 -0.0403
 2245SOL    HW2 7328   2.158   0.945   2.755  1.0947  0.2268  0.1505
 2246SOL     OW 7329   3.392   1.084   2.333  0.4450 -1.0929  0.1052
 2246SOL    HW1 7330   3.386   1.176   2.306  0.8606 -0.4755  1.9498
 2246SOL    HW2 7331   3.428   1.039   2.257  1.5529  0.5232 -0.3958
 2247SOL     OW 7332   5.478   1.651   1.857 -0.2806 -0.6702  0.3488
 2247SOL    HW1 7333   5.451   1.645   1.765 -1.1054 -1.3452  0.6270
 2247SOL    HW2 7334   5.566   1.613   1.859 -0.8565 -2.0467  0.0881
 2248SOL     OW 7335   4.437   1.218   3.508  0.0735  0.7583  0.1845
 2248SOL    HW1 7336   4.497   1.252   3.441 -0.5586  1.7462  0.0948
 2248SOL    HW2 7337   4.452   1.275   3.584  1.9316 -1.3282  1.4993
 2249SOL     OW 7338   5.395   1.045   1.422  0.4861  0.7096  0.0491
 2249SOL    HW1 7339   5.471   1.087   1.461 -1.3644  4.2254  0.2867
 2249SOL    HW2 7340   5.321   1.074   1.475 -1.0823 -3.3698  0.4743
 2250SOL     OW 7341   2.414   0.550   0.879  0.3127 -0.3016 -0.2060
 2250SOL    HW1 7342   2.328   0.564   0.839 -0.4147 -0.0101  1.3764
 2250SOL    HW2 7343   2.442   0.638   0.905  0.3296 -0.5833  0.7550
 2251SOL     OW 7344   5.886   1.494   2.659 -0.2322  0.3999  0.2726
 2251SOL    HW1 7345   5.885   1.404   2.625 -1.7248  1.1411 -1.8543
 2251SOL    HW2 7346   5.944   1.541   2.599  1.8777  0.5941  2.3419
 2252SOL     OW 7347   2.591   2.335   0.208  0.3576 -0.6874 -0.0233
 2252SOL    HW1 7348   2.663   2.395   0.190 -0.6319  0.6271  0.2469
 2252SOL    HW2 7349   2.576   2.343   0.302 -0.9226  0.0169 -0.2614
 2253SOL     OW 7350   6.254   0.724   3.530 -0.0053  0.1268 -0.0889
 2253SOL    HW1 7351   6.237   0.817   3.514 -1.9068  0.0312  1.0907
 2253SOL    HW2 7352   6.244   0.683   3.444 -1.6897  0.7157 -0.2155
 2254SOL     OW 7353   5.407   0.495   1.072  0.3728  0.3453 -0.2981
 2254SOL    HW1 7354   5.321   0.455   1.072  1.1967 -1.5458 -1.9254
 2254SOL    HW2 7355   5.460   0.439   1.129  1.3332 -0.4750 -1.9429
 2255SOL     OW 7356   3.971   0.856   1.635 -0.1360 -0.0463  0.0746
 2255SOL    HW1 7357   3.876   0.871   1.643 -0.0100  1.1049 -0.3572
 2255SOL    HW2 7358   4.009   0.944   1.642  0.9951 -0.5968  1.3222
 2256SOL     OW 7359   3.259   0.698   1.586 -0.6843 -0.1022  0.3351
 2256SOL    HW1 7360   3.288   0.737   1.669  2.0594 -0.8622 -0.1602
 2256SOL    HW2 7361   3.263   0.770   1.523 -1.6379  0.2032  0.6096
 2257SOL     OW 7362   4.243   0.403   1.956  0.3544  0.1306  0.3090
 2257SOL    HW1 7363   4.229   0.404   1.861 -0.2279 -0.5728  0.3743
 2257SOL    HW2 7364   4.336   0.387   1.967  0.2991 -0.5301 -0.1472
 2258SOL     OW 7365   4.188   4.319   3.520  0.9842  0.3758  0.0548
 2258SOL    HW1 7366   4.163   4.411   3.507  2.2171  0.7107 -0.0946
 2258SOL    HW2 7367   4.227   4.316   3.607  1.5182  0.1339 -0.1841
 2259SOL     OW 7368   2.422   0.487   1.387  0.2249  0.4646  0.2940
 2259SOL    HW1 7369   2.477   0.409   1.397  0.5870  0.6689 -0.0731
 2259SOL    HW2 7370   2.372   0.471   1.307  0.4269  0.6825  0.1227
 2260SOL     OW 7371   5.556   1.299   3.351  0.0041  0.1114 -0.1899
 2260SOL    HW1 7372   5.462   1.300   3.332  0.1301  0.3948 -0.8257
 2260SOL    HW2 7373   5.569   1.376   3.406 -0.2766 -0.4254  0.6503
 2261SOL     OW 7374   4.839   1.578   1.622  0.1426 -0.8271  0.3456
 2261SOL    HW1 7375   4.782   1.507   1.652  1.7629 -1.9599  0.9175
 2261SOL    HW2 7376   4.787   1.657   1.632 -0.6304 -1.5571  2.7982
 2262SOL     OW 7377   3.964   1.559   1.621  0.4417  0.0334  0.2886
 2262SOL    HW1 7378   3.998   1.642   1.589  0.1811 -1.0451 -3.1605
 2262SOL    HW2 7379   3.870   1.561   1.601  0.6528 -1.5342 -1.0990
 2263SOL     OW 7380   6.600   1.590   0.053 -0.0390  0.1357 -0.3574
 2263SOL    HW1 7381   6.579   1.641  -0.026 -1.2026  0.0112 -0.1478
 2263SOL    HW2 7382   6.524   1.532   0.064  0.2836 -0.1042  0.6462
 2264SOL     OW 7383   5.804   2.074   0.098  0.5597  0.2299 -0.7117
 2264SOL    HW1 7384   5.785   1.987   0.134  0.2846  0.3875 -0.4748
 2264SOL    HW2 7385   5.816   2.129   0.175  0.5454  0.4441 -0.8628
 2265SOL     OW 7386   4.474   4.891   0.203 -0.2277 -0.3231 -0.1638
 2265SOL    HW1 7387   4.387   4.852   0.195 -0.3569  0.2470 -2.2201
 2265SOL    HW2 7388   4.495   4.920   0.114  1.0365  1.7291  0.7328
 2266SOL     OW 7389   5.612   1.400   0.746  0.4088 -0.7239  0.6544
 2266SOL    HW1 7390   5.542   1.389   0.810 -0.7499  0.1013 -0.4248
 2266SOL    HW2 7391   5.592   1.335   0.678  1.0189 -0.8766  0.6170
 2267SOL     OW 7392   5.506   1.685   3.420 -0.3814  0.2579 -0.2590
 2267SOL    HW1 7393   5.549   1.636   3.350 -3.0929 -1.0822 -1.1335
 2267SOL    HW2 7394   5.461   1.757   3.376 -1.9723 -0.4951  0.0630
 2268SOL     OW 7395   4.281   0.048   0.422  0.2919 -0.0795 -0.6930
 2268SOL    HW1 7396   4.231   0.038   0.341  0.1181  4.7298 -1.4595
 2268SOL    HW2 7397   4.364   0.004   0.405 -0.1452 -0.1254 -3.0690
 2269SOL     OW 7398   5.275   1.394   1.810 -0.0660  0.2597 -0.0826
 2269SOL    HW1 7399   5.195   1.433   1.845 -0.1717 -0.1247  0.1090
 2269SOL    HW2 7400   5.293   1.320   1.868 -0.3347 -0.4857 -0.9263
 2270SOL     OW 7401   4.583   0.906   2.587 -0.1682 -0.6238  0.4576
 2270SOL    HW1 7402   4.579   0.963   2.664  0.0206 -0.6960  0.5236
 2270SOL    HW2 7403   4.628   0.959   2.520  0.3078 -0.8113  0.6255
 2271SOL     OW 7404   4.608   0.932   0.886 -0.6199  0.2044  0.1379
 2271SOL    HW1 7405   4.580   0.884   0.964  0.3043 -2.2063 -0.9002
 2271SOL    HW2 7406   4.684   0.982   0.915  0.2308 -1.3173  0.6574
 2272SOL     OW 7407   5.459   0.687   0.747 -0.2336 -0.2769 -0.2099
 2272SOL    HW1 7408   5.506   0.726   0.673 -1.9379  2.5883  0.0612
 2272SOL    HW2 7409   5.453   0.594   0.725  0.3908  0.2612 -3.0803
 2273SOL     OW 7410   1.501   0.971   2.075 -0.2654  0.6640 -0.1154
 2273SOL    HW1 7411   1.528   1.048   2.125 -0.1756  1.4673 -1.3627
 2273SOL    HW2 7412   1.412   0.991   2.045 -1.1837 -0.7364  1.5165
 2274SOL     OW 7413   3.087   0.816   2.040 -0.7314  0.2164  0.2472
 2274SOL    HW1 7414   3.099   0.803   1.946 -0.0717  0.5391  0.2835
 2274SOL    HW2 7415   3.004   0.863   2.047 -0.4290  0.8393 -0.2254
 2275SOL     OW 7416   3.814   0.761   0.705 -0.3455  0.9597 -0.4089
 2275SOL    HW1 7417   3.893   0.733   0.660  0.3233  2.2267 -0.0518
 2275SOL    HW2 7418   3.813   0.857   0.696 -0.3505  1.2430  1.9756
 2276SOL     OW 7419   6.031   0.564   2.072 -0.0791 -0.6913  0.0444
 2276SOL    HW1 7420   5.972   0.639   2.077  1.2253  0.3602  0.4213
 2276SOL    HW2 7421   6.024   0.522   2.158 -0.5765 -0.8204 -0.0574
 2277SOL     OW 7422   5.528   1.652   0.536  0.0477  0.3563 -0.3559
 2277SOL    HW1 7423   5.439   1.645   0.501  0.8977 -1.5275 -2.3530
 2277SOL    HW2 7424   5.517   1.639   0.631 -1.7200 -0.7107 -0.6523
 2278SOL     OW 7425   4.751   4.733   0.261  0.1112 -0.4567 -0.2722
 2278SOL    HW1 7426   4.682   4.678   0.223  0.8127 -0.3533 -1.7381
 2278SOL    HW2 7427   4.820   4.734   0.196  0.3380  1.7502 -0.0784
 2279SOL     OW 7428   6.092   0.476   0.029 -0.0457  0.4570  0.7288
 2279SOL    HW1 7429   6.154   0.459  -0.042  0.8302  0.1294  1.5586
 2279SOL    HW2 7430   6.131   0.547   0.079  1.3593 -1.8426  3.1470
 2280SOL     OW 7431   1.951   1.448   3.148 -0.4350  0.1973 -0.2166
 2280SOL    HW1 7432   1.965   1.540   3.170 -1.0977  0.1593  0.4050
 2280SOL    HW2 7433   2.024   1.402   3.190 -1.9742  0.0579  2.5384
 2281SOL     OW 7434   6.150   0.722   0.743  0.7410  0.1952 -0.2214
 2281SOL    HW1 7435   6.167   0.754   0.832  1.5828  0.3394 -0.4221
 2281SOL    HW2 7436   6.056   0.735   0.730  0.7928  1.1280  0.2687
 2282SOL     OW 7437   4.723   1.285   0.242  0.0562 -0.3668  0.5336
 2282SOL    HW1 7438   4.756   1.240   0.164  0.9754 -0.5040  0.9868
 2282SOL    HW2 7439   4.633   1.311   0.219 -0.1682 -1.6088 -0.0725
 2283SOL     OW 7440   4.985   1.160   0.721  0.3601  1.1721 -0.6993
 2283SOL    HW1 7441   4.998   1.250   0.689  1.3530  1.6765  1.0129
 2283SOL    HW2 7442   5.056   1.145   0.782 -0.4309 -0.3996 -0.1011
 2284SOL     OW 7443   5.361   1.589   1.633 -0.4081  0.2501  0.1347
 2284SOL    HW1 7444   5.276   1.615   1.598 -0.4717 -0.4934 -0.2788
 2284SOL    HW2 7445   5.346   1.504   1.674 -0.2287  0.8814  1.5715
 2285SOL     OW 7446   4.756   2.041   0.094 -0.1904 -0.1368  0.2003
 2285SOL    HW1 7447   4.680   2.001   0.137  0.4856 -2.3996 -0.5758
 2285SOL    HW2 7448   4.831   2.011   0.144  0.4331 -0.9522 -1.1766
 2286SOL     OW 7449   5.403   4.813   1.297  0.4774 -0.4436 -0.1571
 2286SOL    HW1 7450   5.410   4.723   1.328 -1.0729 -0.3168  0.6515
 2286SOL    HW2 7451   5.395   4.866   1.377 -0.4759  0.2013 -0.6553
 2287SOL     OW 7452   6.534   1.673   3.312  0.0336  0.1823 -0.1153
 2287SOL    HW1 7453   6.527   1.616   3.236  0.9565  0.3920 -0.3622
 2287SOL    HW2 7454   6.614   1.723   3.299 -1.8527  3.2538 -1.0774
 2288SOL     OW 7455   2.845   1.458   0.817 -0.3501 -0.0815  0.5246
 2288SOL    HW1 7456   2.791   1.454   0.738 -0.9799 -3.1080  0.9716
 2288SOL    HW2 7457   2.797   1.517   0.876 -0.7927  0.8123 -0.6890
 2289SOL     OW 7458   3.820   0.856   0.967 -0.3321  0.3937 -0.0695
 2289SOL    HW1 7459   3.820   0.793   0.895  0.1233 -0.1279  0.3784
 2289SOL    HW2 7460   3.730   0.888   0.971 -0.6468 -0.4507 -0.1174
 2290SOL     OW 7461   3.450   1.288   0.745 -0.8144  0.1331  0.0461
 2290SOL    HW1 7462   3.529   1.295   0.799 -1.9409  0.6249  1.7065
 2290SOL    HW2 7463   3.483   1.290   0.655  1.0969 -0.2127  0.6786
 2291SOL     OW 7464   2.957   0.013   0.627 -0.0616  0.3651 -0.2735
 2291SOL    HW1 7465   2.947   0.037   0.719 -0.4049  0.8767 -0.4388
 2291SOL    HW2 7466   2.940  -0.081   0.625  0.3835  0.2684  0.2506
 2292SOL     OW 7467   5.621   5.172   1.297 -0.3887  0.1882  0.2901
 2292SOL    HW1 7468   5.575   5.106   1.245  0.3060  0.0868 -0.1942
 2292SOL    HW2 7469   5.550   5.218   1.343 -0.9249 -0.4700  0.1481
 2293SOL     OW 7470   3.758   5.000   0.283  0.1514  0.0576  0.0239
 2293SOL    HW1 7471   3.704   5.054   0.225 -0.1369 -0.7618 -0.4866
 2293SOL    HW2 7472   3.848   5.024   0.261  0.0215  1.4361  0.8831
 2294SOL     OW 7473   5.369   4.489   2.636  0.1235 -0.1427  0.1166
 2294SOL    HW1 7474   5.296   4.435   2.665 -0.7501  0.6457 -0.5649
 2294SOL    HW2 7475   5.384   4.550   2.708 -1.2791  1.0546 -0.5611
 2295SOL     OW 7476   5.529   1.260   0.529  0.1745 -0.5669 -0.3364
 2295SOL    HW1 7477   5.527   1.169   0.499  2.2435 -0.7150 -0.2075
 2295SOL    HW2 7478   5.580   1.305   0.462  2.8543 -0.4216  1.6379
 2296SOL     OW 7479   5.410   1.645   0.784  0.7077  0.3255 -0.1005
 2296SOL    HW1 7480   5.395   1.551   0.795  1.0680  0.1354 -1.1059
 2296SOL    HW2 7481   5.323   1.684   0.789  0.3279 -0.2750 -1.4331
 2297SOL     OW 7482   4.464   1.388   0.178  0.1426  0.4256  0.2011
 2297SOL    HW1 7483   4.377   1.395   0.219 -0.6093 -0.4566 -1.1794
 2297SOL    HW2 7484   4.516   1.456   0.221 -0.7981  0.0253  2.0950
 2298SOL     OW 7485   4.665   0.681   1.955  0.8440  0.3502 -0.5774
 2298SOL    HW1 7486   4.679   0.766   1.913  0.5002  0.2871 -0.8268
 2298SOL    HW2 7487   4.734   0.625   1.918  1.5699  0.7184  0.1821
 2299SOL     OW 7488   6.357   1.048   3.536  0.6467 -0.0609 -0.2815
 2299SOL    HW1 7489   6.410   0.970   3.550 -0.6797 -0.7306  1.4242
 2299SOL    HW2 7490   6.339   1.048   3.442  2.0069 -0.8894 -0.5716
 2300SOL     OW 7491   4.762   4.712   0.634  0.1970  0.0381 -0.3407
 2300SOL    HW1 7492   4.857   4.708   0.647 -0.0648 -0.9267  1.5786
 2300SOL    HW2 7493   4.740   4.805   0.649  0.8064  0.2346 -0.6315
 2301SOL     OW 7494   4.528   5.208   0.955  0.1090  0.0431 -0.1639
 2301SOL    HW1 7495   4.458   5.211   0.891  0.2843 -1.1460 -0.4315
 2301SOL    HW2 7496   4.548   5.300   0.973 -1.5204  0.4058 -0.0617
 2302SOL     OW 7497   4.908   0.633   1.067  0.4075  0.1313  0.0858
 2302SOL    HW1 7498   4.923   0.682   0.986  0.0074 -0.1892 -0.1808
 2302SOL    HW2 7499   4.916   0.541   1.042 -1.2349 -0.0414  0.0767
 2303SOL     OW 7500   4.797   1.006   0.588  0.0422 -0.4428  0.0456
 2303SOL    HW1 7501   4.720   1.064   0.587  0.4017  0.0352 -0.2008
 2303SOL    HW2 7502   4.870   1.063   0.613  0.2188 -1.0258  0.9205
 2304SOL     OW 7503   5.487   0.888   1.208 -0.0571  0.1868  0.2911
 2304SOL    HW1 7504   5.404   0.864   1.167 -0.5319 -0.9069  1.8177
 2304SOL    HW2 7505   5.462   0.944   1.281  0.5529 -0.0440  0.6836
 2305SOL     OW 7506   5.587   1.875   0.364  0.0994  0.9044  0.4820
 2305SOL    HW1 7507   5.618   1.934   0.433  2.2698  0.1934  0.1762
 2305SOL    HW2 7508   5.590   1.788   0.404  2.3794  0.3484 -0.7287
 2306SOL     OW 7509   4.231   0.683   0.834 -0.0444 -0.0210  0.4720
 2306SOL    HW1 7510   4.183   0.604   0.807  0.1752  0.4592 -1.4989
 2306SOL    HW2 7511   4.320   0.669   0.800  0.2136  0.7185  0.8375
 2307SOL     OW 7512   2.938   5.054   0.884  0.4342 -0.2194 -0.0883
 2307SOL    HW1 7513   2.967   5.113   0.953  1.1752  1.3722 -1.6774
 2307SOL    HW2 7514   2.901   4.979   0.930 -1.3952  1.8487  2.0303
 2308SOL     OW 7515   3.377   5.021   0.243  0.3888  0.1701  0.1433
 2308SOL    HW1 7516   3.293   5.009   0.286  0.2616 -1.8760 -0.5487
 2308SOL    HW2 7517   3.372   5.107   0.202 -1.3928  0.0499  0.0625
 2309SOL     OW 7518   4.646   0.601   0.337  0.4026  0.2072  0.1247
 2309SOL    HW1 7519   4.624   0.667   0.403  1.0637 -1.3484  1.9962
 2309SOL    HW2 7520   4.705   0.646   0.277 -0.8482  1.9001  0.0890
 2310SOL     OW 7521   5.073   5.259   1.694 -0.1681 -0.0976  0.1757
 2310SOL    HW1 7522   4.998   5.265   1.753  0.3763  2.3600  0.7266
 2310SOL    HW2 7523   5.132   5.197   1.738  0.6141  2.3020  2.8409
 2311SOL     OW 7524   5.132   1.843   0.463 -0.0798  0.3819  0.3433
 2311SOL    HW1 7525   5.148   1.854   0.557  0.2131 -1.3813  0.5380
 2311SOL    HW2 7526   5.192   1.904   0.421 -0.9751  1.9766  1.3034
 2312SOL     OW 7527   3.765   0.153   1.360 -0.2756 -0.8228 -0.5164
 2312SOL    HW1 7528   3.719   0.072   1.339 -4.5769  1.4876 -1.1511
 2312SOL    HW2 7529   3.723   0.184   1.440 -0.6815  1.9705 -1.6931
 2313SOL     OW 7530   6.157   1.904   0.872  0.0034  0.2793  0.0972
 2313SOL    HW1 7531   6.077   1.956   0.879 -2.9413 -3.4537 -1.9551
 2313SOL    HW2 7532   6.198   1.933   0.790  0.3813  1.5884  0.7117
 2314SOL     OW 7533   3.568   1.295   0.186 -0.1685 -0.3462  0.2297
 2314SOL    HW1 7534   3.482   1.267   0.217 -0.5036  0.8042  0.3798
 2314SOL    HW2 7535   3.551   1.341   0.104  0.1936  0.6372  0.6921
 2315SOL     OW 7536   6.338   1.073   3.268  0.2716 -0.2023  0.2694
 2315SOL    HW1 7537   6.343   1.079   3.172 -0.3237 -0.6184  0.2000
 2315SOL    HW2 7538   6.247   1.095   3.288 -0.1260 -1.9414  0.5610
 2316SOL     OW 7539   5.126   0.996   0.381 -0.3961 -0.1791  0.2367
 2316SOL    HW1 7540   5.108   1.078   0.334  0.0511 -0.2095  0.0118
 2316SOL    HW2 7541   5.153   0.934   0.313  0.1938 -0.2406  0.5164
 2317SOL     OW 7542   2.589   0.515   1.817 -0.6500  0.7822 -0.1521
 2317SOL    HW1 7543   2.501   0.489   1.792 -0.4873  0.7271 -0.6701
 2317SOL    HW2 7544   2.622   0.565   1.743  0.0004  0.2239 -0.2486
 2318SOL     OW 7545   6.345   0.588   1.642  0.3074 -0.4605 -0.5277
 2318SOL    HW1 7546   6.249   0.587   1.633  0.1732  0.7092  0.5272
 2318SOL    HW2 7547   6.360   0.566   1.734  1.0376 -0.1438 -0.5696
 2319SOL     OW 7548   5.619   1.408   1.588 -0.0810 -0.2387  0.3345
 2319SOL    HW1 7549   5.672   1.449   1.519  0.6907 -1.4036  0.2132
 2319SOL    HW2 7550   5.533   1.449   1.580  1.1606  3.0070  1.6229
 2320SOL     OW 7551   5.981   5.099   0.538 -0.1797 -0.2181  0.2927
 2320SOL    HW1 7552   5.917   5.135   0.600 -0.4107  0.1217 -0.1371
 2320SOL    HW2 7553   6.057   5.077   0.591  0.5103  2.1787  0.3881
 2321SOL     OW 7554   4.839   1.683   2.663 -0.2645 -0.3310  0.0841
 2321SOL    HW1 7555   4.746   1.662   2.662 -0.5956  1.0453  0.4543
 2321SOL    HW2 7556   4.845   1.768   2.619  0.9889 -1.0108 -1.1636
 2322SOL     OW 7557   4.892   0.173   2.658  0.2205 -0.2725 -0.2206
 2322SOL    HW1 7558   4.828   0.227   2.613 -0.4246 -1.4788 -0.7785
 2322SOL    HW2 7559   4.972   0.183   2.606  0.7554  1.7886  0.8670
 2323SOL     OW 7560   2.964   0.777   3.495  0.3138  0.3657 -0.2183
 2323SOL    HW1 7561   2.986   0.863   3.458 -1.6368  0.5328 -1.1693
 2323SOL    HW2 7562   2.891   0.747   3.440 -2.0520  0.1098  2.8085
 2324SOL     OW 7563   5.767   1.159   1.820  0.1336 -0.1758  0.0347
 2324SOL    HW1 7564   5.731   1.150   1.909  0.5925  0.8546  0.3378
 2324SOL    HW2 7565   5.823   1.236   1.825  0.0811 -0.0476 -1.1845
 2325SOL     OW 7566   3.315   0.919   1.399 -0.4091 -0.2533 -0.2340
 2325SOL    HW1 7567   3.378   0.932   1.328 -0.0742 -2.0272 -0.2972
 2325SOL    HW2 7568   3.316   1.002   1.447  0.2829  0.5343 -1.5545
 2326SOL     OW 7569   3.606   5.382   1.320  0.1307  0.3172  0.4157
 2326SOL    HW1 7570   3.533   5.373   1.258  0.4495  0.4870  0.0055
 2326SOL    HW2 7571   3.681   5.347   1.272  1.0465  3.2068 -0.5162
 2327SOL     OW 7572   5.226   1.336   2.612  1.0671 -0.0021  0.6428
 2327SOL    HW1 7573   5.198   1.324   2.703 -0.2136 -0.8891  0.1544
 2327SOL    HW2 7574   5.155   1.386   2.571 -0.1804 -2.6766 -0.7291
 2328SOL     OW 7575   5.851   5.189   0.763 -0.5661  0.3590  0.2702
 2328SOL    HW1 7576   5.761   5.181   0.793 -0.5008 -1.2842  0.1244
 2328SOL    HW2 7577   5.871   5.283   0.770 -1.4335  0.4364  2.7516
 2329SOL     OW 7578   3.591   1.254   1.541 -0.0632  0.3654 -0.2411
 2329SOL    HW1 7579   3.642   1.280   1.618  0.1477 -2.3519  0.6764
 2329SOL    HW2 7580   3.657   1.225   1.478 -0.3236  0.0603 -0.3770
 2330SOL     OW 7581   5.243   1.260   1.570 -0.5470  0.2957 -0.3083
 2330SOL    HW1 7582   5.308   1.249   1.639 -0.0433  0.1559 -0.8027
 2330SOL    HW2 7583   5.182   1.325   1.605  0.9142  1.9008 -0.5789
 2331SOL     OW 7584   4.460   0.365   1.649  0.7095 -0.3442  0.4572
 2331SOL    HW1 7585   4.483   0.273   1.637  1.7877 -0.0642  0.2783
 2331SOL    HW2 7586   4.364   0.366   1.653  0.6684 -1.4061 -0.0706
 2332SOL     OW 7587   4.064   4.838   2.228  0.0712 -0.2375 -0.7445
 2332SOL    HW1 7588   4.009   4.760   2.232 -0.1649 -0.1125 -1.5043
 2332SOL    HW2 7589   4.048   4.875   2.142  1.8038 -0.5268 -1.2302
 2333SOL     OW 7590   3.911   0.621   1.163 -0.1247  0.1979 -0.5124
 2333SOL    HW1 7591   3.922   0.674   1.241 -3.1685 -0.1132  0.2366
 2333SOL    HW2 7592   3.899   0.684   1.092 -2.1888  0.5683  0.1205
 2334SOL     OW 7593   5.691   1.649   0.882 -0.1365  0.5204 -0.0041
 2334SOL    HW1 7594   5.655   1.565   0.854 -0.5219  0.3253  1.0300
 2334SOL    HW2 7595   5.615   1.700   0.910 -0.0676  1.7604 -1.9298
 2335SOL     OW 7596   3.681   5.449   0.781  0.1759  0.1752 -0.1523
 2335SOL    HW1 7597   3.623   5.406   0.719 -0.6257 -0.9990  1.3260
 2335SOL    HW2 7598   3.626   5.514   0.824  0.3926  0.1829  0.1189
 2336SOL     OW 7599   4.806   0.732   1.487 -0.1115  0.2876 -0.3134
 2336SOL    HW1 7600   4.848   0.812   1.457  0.0376 -0.2882 -1.7034
 2336SOL    HW2 7601   4.755   0.701   1.412 -1.1742 -0.2545  0.6014
 2337SOL     OW 7602   4.570   0.395   1.321  0.2221  0.2427  0.2516
 2337SOL    HW1 7603   4.608   0.471   1.277  0.8333  0.7006  1.5177
 2337SOL    HW2 7604   4.485   0.425   1.352  0.6826  0.5946  1.2089
 2338SOL     OW 7605   5.054   1.119   1.810 -0.2130 -0.2817  0.4716
 2338SOL    HW1 7606   5.131   1.164   1.846 -0.3736 -1.4909  2.4119
 2338SOL    HW2 7607   4.987   1.187   1.804  1.2622  1.1399 -2.5107
 2339SOL     OW 7608   2.872   5.417   0.889  0.4422  0.7813 -0.7563
 2339SOL    HW1 7609   2.859   5.502   0.931  0.3750  0.7657 -0.7454
 2339SOL    HW2 7610   2.932   5.370   0.946  0.0324  0.6053 -0.4649
 2340SOL     OW 7611   5.327   5.268   3.031  0.4574  0.0265 -0.4879
 2340SOL    HW1 7612   5.398   5.204   3.040  0.2018 -0.0963  0.9417
 2340SOL    HW2 7613   5.283   5.243   2.950  0.2252 -1.7871  0.1344
 2341SOL     OW 7614   5.177   1.190   0.908  0.4077  0.4664 -0.2556
 2341SOL    HW1 7615   5.250   1.135   0.881 -0.7582 -1.9028  1.0791
 2341SOL    HW2 7616   5.127   1.136   0.968 -2.9582  1.6097 -1.7498
 2342SOL     OW 7617   5.701   1.361   2.344 -0.0034 -0.1634  0.3024
 2342SOL    HW1 7618   5.671   1.370   2.253  1.9982 -1.8882 -0.6167
 2342SOL    HW2 7619   5.661   1.435   2.390 -2.5715 -0.2498 -1.5508
 2343SOL     OW 7620   5.426   1.144   2.223  0.1930  0.4499  0.1509
 2343SOL    HW1 7621   5.508   1.104   2.252  0.4117  0.8022  0.0276
 2343SOL    HW2 7622   5.418   1.223   2.277 -0.0099  0.4707  0.0875
 2344SOL     OW 7623   3.412   0.161   2.348  0.9894  0.5599 -0.2054
 2344SOL    HW1 7624   3.370   0.119   2.423  0.1154  1.0551 -0.3930
 2344SOL    HW2 7625   3.419   0.092   2.283 -0.7911  0.7427 -0.6535
 2345SOL     OW 7626   5.233   2.031   3.149 -0.3893  0.6655 -0.2408
 2345SOL    HW1 7627   5.193   2.022   3.236  1.1865  3.2027  0.8727
 2345SOL    HW2 7628   5.324   2.003   3.163 -0.0045  1.5318 -0.9348
 2346SOL     OW 7629   5.587   1.078   0.877 -0.7242 -0.5568 -0.2588
 2346SOL    HW1 7630   5.627   1.033   0.803 -0.4905 -0.3473 -0.2623
 2346SOL    HW2 7631   5.650   1.068   0.948 -0.5246  0.0348 -0.3495
 2347SOL     OW 7632   6.934   2.206   0.693  0.1971  0.0194 -0.2268
 2347SOL    HW1 7633   6.893   2.206   0.779 -0.4270 -0.5118 -0.5180
 2347SOL    HW2 7634   6.869   2.246   0.635  0.8006  0.8147 -0.3777
 2348SOL     OW 7635   2.880   4.448   1.907  0.0369 -0.2495 -0.4170
 2348SOL    HW1 7636   2.859   4.430   1.999 -1.7607 -0.3392 -0.7956
 2348SOL    HW2 7637   2.937   4.376   1.881  0.4161 -0.3270  0.5736
 2349SOL     OW 7638   3.329   0.552   0.256  0.4883  0.0721 -0.8244
 2349SOL    HW1 7639   3.311   0.565   0.349 -0.3739  0.5773 -1.0464
 2349SOL    HW2 7640   3.420   0.580   0.244  0.2666  1.0361 -0.3299
 2350SOL     OW 7641   4.847   0.717   0.621 -0.2662  0.0367  0.4398
 2350SOL    HW1 7642   4.889   0.687   0.541 -0.1805 -0.9424  0.8321
 2350SOL    HW2 7643   4.842   0.812   0.612  0.8097  0.0445 -0.1966
 2351SOL     OW 7644   5.142   4.845   0.492  0.2105 -0.2019  0.3209
 2351SOL    HW1 7645   5.225   4.892   0.496 -0.0225  0.1193  1.9210
 2351SOL    HW2 7646   5.110   4.845   0.582 -1.3306 -0.6880 -0.2022
 2352SOL     OW 7647   2.985   0.005   1.991  0.3369 -0.4900  0.2567
 2352SOL    HW1 7648   3.050   0.073   2.011 -0.9389  0.7482  0.3018
 2352SOL    HW2 7649   2.964  -0.033   2.076 -0.7507  0.7610  0.5709
 2353SOL     OW 7650   4.391   2.380   0.589  0.2810 -0.4753  0.0711
 2353SOL    HW1 7651   4.415   2.382   0.681 -0.2699  0.9267  0.2010
 2353SOL    HW2 7652   4.474   2.389   0.542  0.3866  0.6024  0.4557
 2354SOL     OW 7653   4.604   0.689   3.106  0.3266 -0.6554  0.1010
 2354SOL    HW1 7654   4.651   0.663   3.026  0.5427 -0.0432  0.0235
 2354SOL    HW2 7655   4.512   0.691   3.079  0.3190 -1.2047  0.0754
 2355SOL     OW 7656   3.104   0.484   1.557  0.3206 -0.3216  0.3630
 2355SOL    HW1 7657   3.139   0.573   1.565 -1.0599  0.4085 -1.1511
 2355SOL    HW2 7658   3.166   0.439   1.499  0.2330  0.1156 -0.0755
 2356SOL     OW 7659   3.474   0.941   1.165 -0.9855 -1.1987  0.3207
 2356SOL    HW1 7660   3.532   0.881   1.213  0.2827 -0.0740  0.2679
 2356SOL    HW2 7661   3.512   0.946   1.078  0.3694  1.4443  0.9729
 2357SOL     OW 7662   3.433   1.030   2.742  0.1610 -0.0083 -0.3582
 2357SOL    HW1 7663   3.377   1.094   2.698 -0.6812  0.1878  0.9363
 2357SOL    HW2 7664   3.373   0.959   2.768  1.1210 -1.5423 -2.0810
 2358SOL     OW 7665   4.187   1.177   1.801 -0.5750 -0.1161 -0.0033
 2358SOL    HW1 7666   4.113   1.169   1.862 -0.2014  0.1663  0.4950
 2358SOL    HW2 7667   4.202   1.271   1.793  1.8392 -0.1572  2.5280
 2359SOL     OW 7668   4.614   1.193   0.490  0.3653 -0.2082  0.0104
 2359SOL    HW1 7669   4.536   1.145   0.464 -0.1629  0.1731  0.8403
 2359SOL    HW2 7670   4.646   1.233   0.409  0.0470 -0.8508 -0.4421
 2360SOL     OW 7671   4.731   0.938   1.190 -0.1005 -0.4634  0.2538
 2360SOL    HW1 7672   4.799   0.934   1.257 -0.4750 -0.0726  0.6691
 2360SOL    HW2 7673   4.778   0.941   1.107  0.3634 -2.5948  0.3760
 2361SOL     OW 7674   4.684   1.327   2.309  0.4620 -0.0885 -0.1280
 2361SOL    HW1 7675   4.776   1.350   2.309 -0.0621  2.2723  0.6848
 2361SOL    HW2 7676   4.651   1.361   2.225  0.4549 -1.8107 -0.8897
 2362SOL     OW 7677   2.653   0.855   1.847 -0.0428  0.0219 -0.3993
 2362SOL    HW1 7678   2.583   0.821   1.791  0.8759 -1.6117 -0.6274
 2362SOL    HW2 7679   2.625   0.943   1.871 -1.0344  0.3174 -2.4573
 2363SOL     OW 7680   4.202   1.436   1.669 -0.4072  0.5507 -0.3142
 2363SOL    HW1 7681   4.119   1.481   1.655 -0.0178  1.0261 -1.2195
 2363SOL    HW2 7682   4.267   1.507   1.676 -0.0410  0.1814  0.0773
 2364SOL     OW 7683   4.343   4.364   0.193  0.1169 -0.3741 -0.0179
 2364SOL    HW1 7684   4.403   4.436   0.176 -0.5826  0.0742 -0.6118
 2364SOL    HW2 7685   4.278   4.400   0.254 -0.0066 -0.6194 -0.0028
 2365SOL     OW 7686   3.722   1.690   1.700  0.1020  0.3615  0.2953
 2365SOL    HW1 7687   3.675   1.700   1.783  1.1533 -0.0994  0.9674
 2365SOL    HW2 7688   3.778   1.767   1.695  0.6544 -0.0226  0.4376
 2366SOL     OW 7689   4.910   0.961   1.380 -0.9330 -0.1468  0.2299
 2366SOL    HW1 7690   4.899   1.053   1.401  1.1753  0.4127 -0.8006
 2366SOL    HW2 7691   5.001   0.941   1.403 -1.5957 -2.2484  1.3111
 2367SOL     OW 7692   3.335   1.350   2.733 -0.1002 -0.1843 -0.1424
 2367SOL    HW1 7693   3.394   1.365   2.659 -0.1242 -1.5804 -0.4587
 2367SOL    HW2 7694   3.260   1.304   2.695 -0.6574  0.1382  0.5496
 2368SOL     OW 7695   4.342   5.302   0.768  0.8335  0.5949 -0.3505
 2368SOL    HW1 7696   4.272   5.359   0.736  0.6912 -0.4761 -2.0829
 2368SOL    HW2 7697   4.342   5.227   0.708  1.9849 -0.5297  0.9619
 2369SOL     OW 7698   5.333   0.582   2.230 -0.0495 -0.0415 -0.3824
 2369SOL    HW1 7699   5.259   0.636   2.256  0.0880 -0.5119  1.0282
 2369SOL    HW2 7700   5.298   0.493   2.224  0.4254 -0.2979  0.4795
 2370SOL     OW 7701   6.354   1.501   0.140 -0.4566  0.1935  0.2656
 2370SOL    HW1 7702   6.311   1.423   0.172  0.1713 -0.7133 -1.0033
 2370SOL    HW2 7703   6.287   1.569   0.144 -1.4823 -0.7766 -0.0710
 2371SOL     OW 7704   3.657   1.684   1.960  0.2198  0.1671 -0.1928
 2371SOL    HW1 7705   3.678   1.761   2.013  2.3414 -0.0464 -0.6066
 2371SOL    HW2 7706   3.588   1.639   2.008  0.8498  0.9020  1.4589
 2372SOL     OW 7707   4.998   1.403   0.603  0.3739  0.4460  0.0684
 2372SOL    HW1 7708   4.976   1.381   0.513  0.7051  1.4554 -0.2729
 2372SOL    HW2 7709   5.092   1.385   0.611  0.1103 -0.8042  0.5849
 2373SOL     OW 7710   4.135   1.654   2.093 -0.4540  0.2402  0.5513
 2373SOL    HW1 7711   4.068   1.608   2.041  1.3539 -1.4579 -0.4276
 2373SOL    HW2 7712   4.094   1.666   2.179 -1.4360 -2.2974  0.5244
 2374SOL     OW 7713   4.725   1.766   0.436  0.5168 -0.3834  0.3534
 2374SOL    HW1 7714   4.786   1.721   0.495 -0.1892  0.4432  1.7605
 2374SOL    HW2 7715   4.767   1.850   0.418  0.1842 -0.1486  0.6611
 2375SOL     OW 7716   5.480   5.008   3.071  0.0545 -0.2562 -0.1706
 2375SOL    HW1 7717   5.426   4.941   3.028  1.0774 -0.9552 -0.4008
 2375SOL    HW2 7718   5.435   5.026   3.153 -1.1934  0.0834 -0.8944
 2376SOL     OW 7719   3.047   0.287   0.908  0.3233 -0.3821  0.8638
 2376SOL    HW1 7720   2.966   0.277   0.958 -0.3957 -0.7065 -0.3084
 2376SOL    HW2 7721   3.077   0.376   0.928 -0.5106 -0.1295  1.0504
 2377SOL     OW 7722   5.196   0.825   0.184 -0.2963 -0.3731  0.9151
 2377SOL    HW1 7723   5.170   0.735   0.169 -0.4244 -0.2323  0.2488
 2377SOL    HW2 7724   5.216   0.859   0.097  0.6928 -0.0435  1.2583
 2378SOL     OW 7725   3.223   0.278   0.238  0.4850 -0.0245  0.4082
 2378SOL    HW1 7726   3.156   0.276   0.306 -2.4766  2.1767 -2.1379
 2378SOL    HW2 7727   3.267   0.362   0.250  1.2689 -0.4765  0.7294
 2379SOL     OW 7728   4.014   0.205   1.393 -0.5924 -0.2677 -0.3932
 2379SOL    HW1 7729   3.919   0.197   1.399 -0.6550  0.7072  0.1327
 2379SOL    HW2 7730   4.033   0.204   1.299 -0.9110 -2.4305 -0.4813
 2380SOL     OW 7731   6.005   2.035   3.094  0.3263 -0.0912  0.5985
 2380SOL    HW1 7732   6.039   2.125   3.098  0.0835 -0.0140  0.8899
 2380SOL    HW2 7733   5.970   2.027   3.005 -0.5960  0.4420  0.9080
 2381SOL     OW 7734   2.620   0.545   2.123 -0.1600  0.4691  0.6625
 2381SOL    HW1 7735   2.575   0.463   2.102 -0.8996  0.8818  0.6199
 2381SOL    HW2 7736   2.628   0.590   2.039 -2.0214  1.5645  1.0206
 2382SOL     OW 7737   5.230   0.348   0.742 -0.1698  0.2547 -0.0247
 2382SOL    HW1 7738   5.323   0.371   0.743  0.0133 -0.4910  0.4926
 2382SOL    HW2 7739   5.186   0.429   0.716  0.5417  0.9040  0.7308
 2383SOL     OW 7740   3.010   5.397   0.153  0.0025  0.8994  0.2588
 2383SOL    HW1 7741   3.041   5.388   0.243  2.7305  0.7672 -0.6059
 2383SOL    HW2 7742   3.045   5.319   0.108 -2.3411  0.3056 -0.7061
 2384SOL     OW 7743   3.296   0.873   0.742 -0.2727 -0.4226  0.5896
 2384SOL    HW1 7744   3.248   0.920   0.674  1.8141 -0.8247 -1.2534
 2384SOL    HW2 7745   3.303   0.936   0.814 -0.5223  0.8451 -0.4674
 2385SOL     OW 7746   6.478   1.486   0.789 -0.2478 -0.6176 -0.1784
 2385SOL    HW1 7747   6.395   1.531   0.774 -0.2970 -0.6331  0.0462
 2385SOL    HW2 7748   6.462   1.396   0.758 -0.5414 -0.8142  0.5218
 2386SOL     OW 7749   2.538   1.095   1.156  0.5732  0.3398  0.6915
 2386SOL    HW1 7750   2.459   1.081   1.207  0.1779  1.2101  0.3264
 2386SOL    HW2 7751   2.523   1.177   1.109  1.1225 -0.1802 -0.4525
 2387SOL     OW 7752   3.626   0.233   1.160  0.1048  0.1427 -0.0073
 2387SOL    HW1 7753   3.672   0.202   1.237 -0.1920  0.6824  0.3950
 2387SOL    HW2 7754   3.690   0.289   1.115 -0.2192  1.1297  0.7045
 2388SOL     OW 7755   5.765   5.066   1.489 -0.0071  0.0678  0.2953
 2388SOL    HW1 7756   5.701   5.106   1.430  1.8832  1.7087 -0.7561
 2388SOL    HW2 7757   5.783   5.133   1.554  0.9892 -0.1789  0.2826
 2389SOL     OW 7758   4.352   0.338   0.637  0.8403 -0.1193 -0.2087
 2389SOL    HW1 7759   4.360   0.271   0.569 -2.1115  0.2954 -1.0992
 2389SOL    HW2 7760   4.392   0.416   0.599  0.6251 -0.3174 -0.8591
 2390SOL     OW 7761   4.355   0.980   1.834  0.3797  0.4281  0.3627
 2390SOL    HW1 7762   4.306   1.062   1.828  0.5095  0.5022  0.3258
 2390SOL    HW2 7763   4.420   0.997   1.902 -0.1791  0.0590  1.0068
 2391SOL     OW 7764   2.582   0.472   3.053  0.2584 -0.0783 -0.2649
 2391SOL    HW1 7765   2.490   0.448   3.052 -0.4820  2.5321 -0.0597
 2391SOL    HW2 7766   2.596   0.518   2.970  2.4878 -3.8248 -2.2924
 2392SOL     OW 7767   5.333   0.252   1.647 -0.2707 -0.6469  0.0689
 2392SOL    HW1 7768   5.299   0.198   1.718  0.9364 -1.7620 -0.1607
 2392SOL    HW2 7769   5.356   0.190   1.578  1.1699  0.1434 -0.2029
 2393SOL     OW 7770   3.777   1.294   1.760 -0.3245  0.4362  0.0773
 2393SOL    HW1 7771   3.830   1.374   1.772  2.5025 -1.2959 -0.0147
 2393SOL    HW2 7772   3.756   1.267   1.849  0.3027  0.2944  0.1849
 2394SOL     OW 7773   6.839   1.779   0.774  0.1036  0.4549  0.1111
 2394SOL    HW1 7774   6.795   1.768   0.689 -0.0965  0.9840  0.1411
 2394SOL    HW2 7775   6.929   1.751   0.757  0.7189  2.7371 -0.9470
 2395SOL     OW 7776   4.518   0.147   2.723 -0.1163  0.0451 -0.2474
 2395SOL    HW1 7777   4.540   0.123   2.633 -2.7927  4.2709 -2.3476
 2395SOL    HW2 7778   4.591   0.202   2.752 -0.3166  0.6443 -0.8431
 2396SOL     OW 7779   5.224   1.799   1.881 -0.3058  0.1669 -0.2753
 2396SOL    HW1 7780   5.292   1.866   1.879 -0.0449 -0.0665 -2.9938
 2396SOL    HW2 7781   5.261   1.726   1.832 -0.6269 -2.0093  2.4769
 2397SOL     OW 7782   4.015   1.826   1.539  0.3822  0.6082 -0.1079
 2397SOL    HW1 7783   4.049   1.899   1.590 -1.3635  0.5685  1.1937
 2397SOL    HW2 7784   3.962   1.867   1.471 -0.1703  0.5682  0.2982
 2398SOL     OW 7785   6.071   0.580   1.177  0.3976 -0.0297  0.1160
 2398SOL    HW1 7786   6.161   0.562   1.152 -0.2352 -1.7920 -1.1292
 2398SOL    HW2 7787   6.019   0.548   1.103 -1.3649 -1.5108  1.8587
 2399SOL     OW 7788   4.748   0.637   2.857  0.1707 -0.1755 -0.2460
 2399SOL    HW1 7789   4.823   0.675   2.813 -0.6343 -0.7099 -2.2291
 2399SOL    HW2 7790   4.771   0.544   2.869  0.4367 -0.0072  0.6251
 2400SOL     OW 7791   3.483   0.414   2.514 -0.2161  0.1535  0.5883
 2400SOL    HW1 7792   3.537   0.365   2.452  0.9755  0.6833  1.1647
 2400SOL    HW2 7793   3.538   0.424   2.592  0.3268  3.8193 -0.0567
 2401SOL     OW 7794   6.069   0.562   2.338 -0.1017  0.0058  0.1072
 2401SOL    HW1 7795   6.161   0.547   2.320  0.2503  1.7649  0.2798
 2401SOL    HW2 7796   6.059   0.544   2.431 -0.0677 -0.7208 -0.0233
 2402SOL     OW 7797   5.055   5.132   0.111  0.1989 -0.3145  0.0816
 2402SOL    HW1 7798   5.045   5.090   0.197 -0.7879  0.7122  0.4974
 2402SOL    HW2 7799   5.148   5.153   0.106  0.8567 -3.0990 -0.4413
 2403SOL     OW 7800   5.186   2.508   0.559 -0.2233 -0.4467  0.0876
 2403SOL    HW1 7801   5.137   2.455   0.622  1.4893 -2.9566 -0.5079
 2403SOL    HW2 7802   5.256   2.450   0.530 -0.8380  0.6134 -4.0485
 2404SOL     OW 7803   3.862   1.569   0.800 -0.2812  0.4057 -0.2149
 2404SOL    HW1 7804   3.915   1.638   0.840  0.5436  0.1242 -0.7932
 2404SOL    HW2 7805   3.906   1.488   0.826  0.2561  0.2172 -1.6333
 2405SOL     OW 7806   4.395   4.777   3.319 -0.6501 -0.2134  0.2580
 2405SOL    HW1 7807   4.437   4.846   3.371  1.8872 -0.4794 -1.2581
 2405SOL    HW2 7808   4.438   4.696   3.348 -0.2329 -0.5409 -1.1969
 2406SOL     OW 7809   4.513   0.829   0.472  0.4346 -0.0395 -0.0535
 2406SOL    HW1 7810   4.598   0.870   0.459  0.8269 -1.2495 -1.6112
 2406SOL    HW2 7811   4.470   0.835   0.387 -0.2165 -1.2476  0.1648
 2407SOL     OW 7812   6.837   1.196   0.123  0.3314 -0.4409  0.1296
 2407SOL    HW1 7813   6.905   1.251   0.161 -0.0368  0.1701 -0.0752
 2407SOL    HW2 7814   6.777   1.258   0.082  0.1182 -1.0200 -0.4534
 2408SOL     OW 7815   4.412   1.651   1.610 -0.4206 -0.6470  0.5022
 2408SOL    HW1 7816   4.416   1.727   1.668 -2.9285  0.2133 -0.3636
 2408SOL    HW2 7817   4.390   1.687   1.524  2.2342 -2.0034 -0.8907
 2409SOL     OW 7818   3.556   0.979   0.904  0.7249 -0.5326  0.4870
 2409SOL    HW1 7819   3.612   1.057   0.908 -0.4945  0.3540  1.1369
 2409SOL    HW2 7820   3.547   0.960   0.811  0.2875  0.6987  0.2553
 2410SOL     OW 7821   4.489   1.403   1.775 -0.3349  0.1582  0.1991
 2410SOL    HW1 7822   4.456   1.484   1.736  1.4975  0.5850 -0.5847
 2410SOL    HW2 7823   4.488   1.340   1.703  0.2213  0.0937  0.2439
 2411SOL     OW 7824   5.848   5.369   2.130 -0.6381 -0.2529  0.2715
 2411SOL    HW1 7825   5.905   5.326   2.193 -0.9016 -0.0478  0.6591
 2411SOL    HW2 7826   5.825   5.452   2.172  1.6458  1.3189 -1.3957
 2412SOL     OW 7827   3.059   0.859   1.386 -0.1298  0.1521  0.3089
 2412SOL    HW1 7828   3.041   0.946   1.422  1.0646  1.0242 -1.1003
 2412SOL    HW2 7829   3.154   0.858   1.372 -0.1752 -1.2416 -0.0376
 2413SOL     OW 7830   4.192   0.825   1.974  1.1778 -0.1144  0.2111
 2413SOL    HW1 7831   4.256   0.862   1.914  0.9082 -1.6353 -1.0693
 2413SOL    HW2 7832   4.161   0.745   1.931  1.0119 -1.3061  2.3888
 2414SOL     OW 7833   6.225   1.950   0.060 -0.2934  0.4931 -0.4172
 2414SOL    HW1 7834   6.308   1.925   0.102 -0.0217  0.8884 -0.6997
 2414SOL    HW2 7835   6.205   1.877   0.001 -0.6034  0.0010  0.2829
 2415SOL     OW 7836   5.753   4.014   0.720  0.4726 -0.3074  0.1927
 2415SOL    HW1 7837   5.834   3.971   0.747  1.2036 -2.2670 -4.1589
 2415SOL    HW2 7838   5.781   4.097   0.682  0.2368 -0.2595  0.1191
 2416SOL     OW 7839   4.424   4.566   1.033  0.4582 -0.2603  0.1518
 2416SOL    HW1 7840   4.371   4.501   0.986  0.3553  0.2739 -0.4974
 2416SOL    HW2 7841   4.398   4.556   1.125 -1.4781  0.5952 -0.2538
 2417SOL     OW 7842   3.914   0.882   3.231 -0.0891  0.0650  0.0249
 2417SOL    HW1 7843   3.889   0.958   3.179  0.7462  0.1773 -0.2226
 2417SOL    HW2 7844   3.831   0.846   3.262 -0.5221  0.7391 -0.3317
 2418SOL     OW 7845   5.403   0.980   0.537 -0.3629  0.6263 -0.2085
 2418SOL    HW1 7846   5.420   0.888   0.515  0.2232  0.9494 -1.1936
 2418SOL    HW2 7847   5.324   1.002   0.488 -0.6895  0.5598  0.2861
 2419SOL     OW 7848   4.478   0.711   0.717 -0.5365  1.2651  0.4463
 2419SOL    HW1 7849   4.529   0.771   0.771 -1.1390  1.7883  0.4352
 2419SOL    HW2 7850   4.481   0.748   0.629 -0.0248  0.7099  0.2190
 2420SOL     OW 7851   4.459   0.934   1.595  0.1339 -0.1318  0.2846
 2420SOL    HW1 7852   4.444   0.962   1.685  2.1452 -0.5278  0.7829
 2420SOL    HW2 7853   4.492   0.845   1.602  0.6315 -0.0526 -0.8216
 2421SOL     OW 7854   3.267   1.371   1.654 -0.2812 -0.2908  0.4218
 2421SOL    HW1 7855   3.287   1.437   1.588  0.8275 -1.6212 -0.6558
 2421SOL    HW2 7856   3.187   1.402   1.696 -0.6373  0.9599 -1.0843
 2422SOL     OW 7857   4.572   1.611   3.438 -0.2834  0.2283 -0.9212
 2422SOL    HW1 7858   4.648   1.590   3.383 -0.2516  0.1325 -0.8406
 2422SOL    HW2 7859   4.526   1.528   3.448  0.2066  0.0431 -0.0504
 2423SOL     OW 7860   5.422   0.174   2.447 -0.3993 -0.4248 -0.2037
 2423SOL    HW1 7861   5.392   0.180   2.537 -2.4011 -0.1990 -0.8340
 2423SOL    HW2 7862   5.474   0.094   2.444  0.2398 -0.0899  1.2671
 2424SOL     OW 7863   4.028   0.941   2.187 -0.3907 -0.5357 -0.0112
 2424SOL    HW1 7864   4.061   1.029   2.206 -1.2266  0.0485 -1.1728
 2424SOL    HW2 7865   4.074   0.916   2.107 -1.3560 -0.4816 -0.5908
 2425SOL     OW 7866   3.543   5.276   1.696  0.1723 -0.3819  0.3977
 2425SOL    HW1 7867   3.562   5.206   1.632  0.4854 -0.0633  0.1380
 2425SOL    HW2 7868   3.458   5.310   1.669 -0.0239 -0.7236  0.5789
 2426SOL     OW 7869   4.522   0.803   0.127 -0.1865  0.2697  0.1428
 2426SOL    HW1 7870   4.614   0.779   0.111  0.2861  0.5517  2.1952
 2426SOL    HW2 7871   4.485   0.812   0.039  1.8540  0.5955 -0.7594
 2427SOL     OW 7872   5.153   0.976   1.558 -0.8969 -0.3391 -0.8970
 2427SOL    HW1 7873   5.120   1.037   1.624 -0.3643 -1.2862  0.2973
 2427SOL    HW2 7874   5.176   0.897   1.608  1.8794 -0.2205 -1.8390
 2428SOL     OW 7875   3.423   0.440   1.118  0.2503  0.1641 -0.7313
 2428SOL    HW1 7876   3.463   0.489   1.046  0.4545  0.2460 -0.5617
 2428SOL    HW2 7877   3.487   0.371   1.139  1.1577  1.4052  0.7691
 2429SOL     OW 7878   6.030   4.913   1.457 -0.4320  0.1164 -0.6276
 2429SOL    HW1 7879   6.008   4.864   1.378  0.1044  0.3041 -0.8962
 2429SOL    HW2 7880   5.957   4.973   1.469 -2.2151 -2.1858  0.9452
 2430SOL     OW 7881   3.190   0.709   0.464  0.1077  0.3820  0.2828
 2430SOL    HW1 7882   3.109   0.707   0.413 -0.6041 -0.5969  1.3877
 2430SOL    HW2 7883   3.163   0.687   0.553  1.7313 -1.1034  0.4690
 2431SOL     OW 7884   4.870   1.010   0.949  0.4780  0.2365 -0.3821
 2431SOL    HW1 7885   4.954   0.999   0.992  0.6045 -0.9170 -0.8883
 2431SOL    HW2 7886   4.891   1.029   0.858  0.2193 -1.1850 -0.7703
 2432SOL     OW 7887   5.475   1.565   2.757  0.4844  0.3178 -0.2006
 2432SOL    HW1 7888   5.397   1.603   2.798 -0.0526 -0.2884 -0.6480
 2432SOL    HW2 7889   5.487   1.480   2.800  0.9558  0.4443 -0.0692
 2433SOL     OW 7890   5.586   0.716   0.457  0.4589 -1.1911  0.1056
 2433SOL    HW1 7891   5.546   0.742   0.374 -1.3509 -2.2564  0.5765
 2433SOL    HW2 7892   5.618   0.627   0.441  0.6903 -1.1518  0.3497
 2434SOL     OW 7893   4.206   4.756   0.170  0.5230 -0.5683 -0.6131
 2434SOL    HW1 7894   4.162   4.772   0.087 -1.9538  0.3068  0.7618
 2434SOL    HW2 7895   4.168   4.675   0.203 -0.1702  0.2122  0.6155
 2435SOL     OW 7896   4.938   1.427   2.278 -0.1340 -0.2390 -0.3878
 2435SOL    HW1 7897   4.994   1.354   2.252  0.4499  0.0414  0.0676
 2435SOL    HW2 7898   4.977   1.503   2.236 -0.2893 -0.0669 -0.2242
 2436SOL     OW 7899   3.956   1.534   2.699 -0.1956 -0.3289  0.0032
 2436SOL    HW1 7900   3.881   1.477   2.684 -0.9276  0.4739  0.4835
 2436SOL    HW2 7901   4.017   1.482   2.750 -1.5861 -0.1568  1.9310
 2437SOL     OW 7902   5.111   2.452   3.111 -0.1633  0.1716 -0.1234
 2437SOL    HW1 7903   5.137   2.407   3.030 -0.3788 -1.0094  0.4481
 2437SOL    HW2 7904   5.133   2.391   3.181  1.1870  1.6661  0.8479
 2438SOL     OW 7905   3.496   0.147   3.501  0.0320 -0.0158  0.2967
 2438SOL    HW1 7906   3.409   0.189   3.501 -0.2935 -0.6327  1.6202
 2438SOL    HW2 7907   3.490   0.080   3.569  1.2907 -0.6436 -0.1857
 2439SOL     OW 7908   4.997   1.941   0.187  0.4748  0.3357 -0.5125
 2439SOL    HW1 7909   5.064   1.933   0.120 -0.1640 -1.2061 -1.0064
 2439SOL    HW2 7910   5.027   1.886   0.259  1.3925  2.3442  0.7473
 2440SOL     OW 7911   3.801   1.948   1.733  0.3510  0.1415  0.3653
 2440SOL    HW1 7912   3.712   1.983   1.726  0.4707  0.7231  1.5475
 2440SOL    HW2 7913   3.828   1.969   1.822  2.6982  2.4430 -0.7355
 2441SOL     OW 7914   4.840   0.954   3.472  0.0722 -0.1051  0.1756
 2441SOL    HW1 7915   4.842   1.049   3.484  0.7131  0.1764 -1.7878
 2441SOL    HW2 7916   4.749   0.934   3.451  0.4216  0.5714 -2.3637
 2442SOL     OW 7917   3.933   0.220   0.490 -0.4546 -0.7449  0.2622
 2442SOL    HW1 7918   3.918   0.213   0.395 -1.1167 -2.2643  0.4384
 2442SOL    HW2 7919   3.960   0.311   0.504 -2.9733  0.2969 -1.0368
 2443SOL     OW 7920   6.842   1.819   1.737  0.6334 -0.0414 -0.1635
 2443SOL    HW1 7921   6.795   1.742   1.770 -0.7832  1.4410  1.4229
 2443SOL    HW2 7922   6.844   1.806   1.642  0.0993 -1.8356  0.0263
 2444SOL     OW 7923   5.568   1.824   1.532 -0.2933  0.2225 -0.3399
 2444SOL    HW1 7924   5.573   1.904   1.480  0.0098  0.1823 -0.3741
 2444SOL    HW2 7925   5.496   1.839   1.593  0.2728  0.8451  0.1993
 2445SOL     OW 7926   5.964   1.342   1.884  0.0590 -0.0400  0.0946
 2445SOL    HW1 7927   6.040   1.357   1.827  0.6346  1.2475  1.1470
 2445SOL    HW2 7928   5.995   1.277   1.948 -0.5239 -1.3327 -0.8835
 2446SOL     OW 7929   4.614   0.012   3.236 -0.2705  0.8672 -0.2540
 2446SOL    HW1 7930   4.664  -0.041   3.174 -0.8235 -0.5987  0.5231
 2446SOL    HW2 7931   4.670   0.020   3.313 -0.5333  0.6878 -0.0426
 2447SOL     OW 7932   3.234   0.898   3.350 -0.2895  0.3505 -0.3760
 2447SOL    HW1 7933   3.213   0.816   3.396  1.2973  1.2961  2.2283
 2447SOL    HW2 7934   3.167   0.960   3.379 -0.2320  0.5371 -0.6355
 2448SOL     OW 7935   4.897   1.501   3.427 -0.0314  0.0329  0.2050
 2448SOL    HW1 7936   4.866   1.541   3.509  0.8614  0.7529  0.2103
 2448SOL    HW2 7937   4.922   1.576   3.373 -0.5543 -0.4457 -0.7097
 2449SOL     OW 7938   3.530   0.697   2.704  0.1742  0.2172 -0.2512
 2449SOL    HW1 7939   3.604   0.706   2.644  0.0524  0.9184 -0.3127
 2449SOL    HW2 7940   3.528   0.780   2.752  0.1340 -0.2582  0.5675
 2450SOL     OW 7941   4.486   1.011   1.317 -0.0834  0.2180 -0.5321
 2450SOL    HW1 7942   4.571   0.980   1.285  0.2255  0.4614  0.0359
 2450SOL    HW2 7943   4.467   0.954   1.392  0.0286  0.7688 -0.0796
 2451SOL     OW 7944   4.651   2.176   0.442  0.5765  0.9198 -0.0636
 2451SOL    HW1 7945   4.735   2.131   0.450  0.9296  1.3715 -1.0285
 2451SOL    HW2 7946   4.586   2.113   0.472  1.3583  1.0352  2.0267
 2452SOL     OW 7947   5.071   0.344   1.985 -0.1477  0.6086  0.2022
 2452SOL    HW1 7948   5.106   0.278   1.925 -0.6364  0.6637 -0.1467
 2452SOL    HW2 7949   5.111   0.427   1.956  0.3994  0.4836  0.5875
 2453SOL     OW 7950   5.915   2.119   2.823  0.3419 -0.6099  0.2807
 2453SOL    HW1 7951   5.952   2.056   2.761 -0.8787  0.0761 -1.1948
 2453SOL    HW2 7952   5.893   2.195   2.770 -2.9684 -0.8863  1.0770
 2454SOL     OW 7953   6.439   0.770   2.573 -0.1463  0.4527  0.4790
 2454SOL    HW1 7954   6.532   0.794   2.572 -0.1620  0.5699 -0.7930
 2454SOL    HW2 7955   6.395   0.847   2.536 -0.3806 -0.7882 -2.0453
 2455SOL     OW 7956   3.971   1.355   3.152  0.5286 -0.1363  0.1846
 2455SOL    HW1 7957   3.907   1.425   3.136  2.3021  1.3297 -0.9472
 2455SOL    HW2 7958   4.014   1.380   3.233  0.9989 -0.0517 -0.0906
 2456SOL     OW 7959   5.386   0.567   2.651 -0.2125 -0.3257  0.1972
 2456SOL    HW1 7960   5.331   0.517   2.591  0.6711 -0.0374 -0.9010
 2456SOL    HW2 7961   5.347   0.654   2.653 -0.8425 -0.6151  0.8740
 2457SOL     OW 7962   5.626   2.115   2.672 -0.3223 -0.2102  0.0151
 2457SOL    HW1 7963   5.711   2.149   2.644 -0.4006  0.5904  0.7126
 2457SOL    HW2 7964   5.577   2.103   2.591 -0.1996  1.1408 -0.2915
 2458SOL     OW 7965   3.902   1.446   0.238 -0.1240  0.3900 -0.4946
 2458SOL    HW1 7966   3.816   1.453   0.197  0.0022  2.3107 -0.5309
 2458SOL    HW2 7967   3.925   1.536   0.261  1.8866 -0.0664 -0.5136
 2459SOL     OW 7968   4.613   5.302   2.611  0.0231  0.3480  0.1251
 2459SOL    HW1 7969   4.607   5.373   2.547 -1.0880  0.3506  0.2113
 2459SOL    HW2 7970   4.525   5.296   2.647  0.6439  0.3988  1.7231
 2460SOL     OW 7971   5.187   1.131   3.158  0.5498  0.5256 -0.1829
 2460SOL    HW1 7972   5.121   1.064   3.180  1.1390  0.3115  1.0454
 2460SOL    HW2 7973   5.136   1.212   3.150  0.1781  0.5070  1.5043
 2461SOL     OW 7974   3.374   5.354   1.164 -0.3689 -0.0951 -0.1382
 2461SOL    HW1 7975   3.379   5.338   1.069 -0.1145  1.2188 -0.3604
 2461SOL    HW2 7976   3.327   5.437   1.172 -0.5556 -0.2950  0.9015
 2462SOL     OW 7977   4.420   1.903   0.241  0.4145 -0.4794 -0.6513
 2462SOL    HW1 7978   4.354   1.972   0.251 -0.4729 -1.4621  0.4802
 2462SOL    HW2 7979   4.420   1.883   0.148  1.3249  1.6411 -1.1623
 2463SOL     OW 7980   3.179   1.916   3.040  0.8705 -0.4024 -0.7906
 2463SOL    HW1 7981   3.202   1.992   2.986 -3.8739  0.8650 -1.4810
 2463SOL    HW2 7982   3.184   1.842   2.980 -1.8754  0.6441 -2.5233
 2464SOL     OW 7983   3.778   0.302   0.745  0.5096  0.2385  0.1710
 2464SOL    HW1 7984   3.801   0.301   0.652  0.0284  0.3290  0.0480
 2464SOL    HW2 7985   3.686   0.329   0.747  1.3590  3.5354  0.8369
 2465SOL     OW 7986   6.292   2.764   2.508 -0.0991 -0.3536  0.1171
 2465SOL    HW1 7987   6.265   2.682   2.549 -0.0475  0.8438  2.7924
 2465SOL    HW2 7988   6.378   2.783   2.546 -0.2459  1.0489 -0.1865
 2466SOL     OW 7989   4.018   1.230   0.413  0.6202  0.7230  0.4458
 2466SOL    HW1 7990   4.001   1.294   0.344  0.8026 -1.3284 -1.6447
 2466SOL    HW2 7991   4.106   1.249   0.443  1.4886  0.2478 -1.6288
 2467SOL     OW 7992   4.740   1.837   1.672 -0.4282 -0.0168  0.3026
 2467SOL    HW1 7993   4.811   1.900   1.686 -0.9195  0.4331  0.7948
 2467SOL    HW2 7994   4.669   1.889   1.634 -0.0588 -0.7127 -1.4316
 2468SOL     OW 7995   3.862   0.622   3.528  0.2983 -0.3195 -0.4145
 2468SOL    HW1 7996   3.788   0.576   3.488  1.8997 -1.8559 -1.7566
 2468SOL    HW2 7997   3.869   0.584   3.616 -0.6109  0.0386 -0.1622
 2469SOL     OW 7998   5.044   0.009   3.086  0.3156 -0.2220  0.1109
 2469SOL    HW1 7999   5.047  -0.013   2.993  0.7707 -1.4185  0.3913
 2469SOL    HW2 8000   5.004  -0.068   3.128 -1.6849  1.0478  0.7022
 2470SOL     OW 8001   5.632   2.049   2.982 -0.6110 -0.2519 -0.1331
 2470SOL    HW1 8002   5.625   2.138   2.949 -0.3999  0.3853  1.4755
 2470SOL    HW2 8003   5.692   2.006   2.921  0.5458  1.1493 -0.0310
 2471SOL     OW 8004   3.769   5.361   3.546 -0.0708  0.2790  0.2617
 2471SOL    HW1 8005   3.775   5.449   3.509  2.0646  0.4771  0.9331
 2471SOL    HW2 8006   3.815   5.306   3.483 -0.7447 -0.2540  0.2187
 2472SOL     OW 8007   5.046   2.633   2.841 -0.3163  0.2575  0.3282
 2472SOL    HW1 8008   4.999   2.554   2.869 -1.9325  0.9349 -0.3706
 2472SOL    HW2 8009   5.020   2.645   2.750  1.9451  0.1878 -0.3790
 2473SOL     OW 8010   4.005   1.315   1.996  0.1695 -0.0525  0.1249
 2473SOL    HW1 8011   4.069   1.313   2.068  1.0821  1.8683 -0.5436
 2473SOL    HW2 8012   3.996   1.408   1.976 -0.2926 -0.5130 -2.0419
 2474SOL     OW 8013   3.605   0.263   1.572 -0.0584  0.5334 -0.0057
 2474SOL    HW1 8014   3.626   0.269   1.665 -2.2271  0.0058  0.5496
 2474SOL    HW2 8015   3.575   0.351   1.549  1.4540  0.9613 -0.5226
 2475SOL     OW 8016   4.772   1.204   1.696 -0.5534  0.3495  0.3765
 2475SOL    HW1 8017   4.689   1.208   1.649 -0.5353 -1.1002  0.1656
 2475SOL    HW2 8018   4.836   1.180   1.630 -0.4365 -1.1569  0.9817
 2476SOL     OW 8019   3.997   1.713   2.321  0.0078 -0.2203 -0.1635
 2476SOL    HW1 8020   3.902   1.700   2.315 -0.0885  0.9270 -1.8699
 2476SOL    HW2 8021   4.007   1.797   2.365  0.1392  0.5327 -1.5778
 2477SOL     OW 8022   5.424   5.286   1.508 -0.5727 -0.3121  0.8184
 2477SOL    HW1 8023   5.456   5.282   1.598 -0.5740 -0.9945  0.7945
 2477SOL    HW2 8024   5.398   5.377   1.496  2.0859  0.5202  0.5885
 2478SOL     OW 8025   4.223   1.586   3.545  0.2344 -1.0717  0.0369
 2478SOL    HW1 8026   4.241   1.550   3.631 -2.1128 -1.1541  0.5739
 2478SOL    HW2 8027   4.247   1.678   3.551 -2.2233 -0.4386  1.6788
 2479SOL     OW 8028   4.731   1.363   1.944 -0.5221 -0.2292 -0.2879
 2479SOL    HW1 8029   4.797   1.345   1.878 -1.0709 -1.8798 -0.4382
 2479SOL    HW2 8030   4.648   1.362   1.896 -0.8091  0.0645  0.1886
 2480SOL     OW 8031   4.157   0.415   0.797  0.8463 -0.3240  0.1144
 2480SOL    HW1 8032   4.110   0.332   0.806 -0.4949  0.1440 -1.7872
 2480SOL    HW2 8033   4.241   0.391   0.758  0.7535 -0.8540  0.2339
 2481SOL     OW 8034   4.484   0.097   3.453 -0.1454 -0.2187 -0.5213
 2481SOL    HW1 8035   4.489   0.068   3.361 -0.4746  0.6429 -0.8187
 2481SOL    HW2 8036   4.466   0.191   3.448 -1.2092 -0.3512  0.4311
 2482SOL     OW 8037   6.348   1.492   2.452  0.1650  0.5507 -0.4323
 2482SOL    HW1 8038   6.322   1.577   2.415 -0.4136  0.2314 -0.7638
 2482SOL    HW2 8039   6.401   1.515   2.529  0.2012  1.2121 -0.6449
 2483SOL     OW 8040   5.522   0.985   2.672 -0.3284  0.0435  0.2528
 2483SOL    HW1 8041   5.495   1.074   2.648  0.9959  0.1382 -1.0837
 2483SOL    HW2 8042   5.601   0.997   2.724  0.8885 -0.3502 -1.4220
 2484SOL     OW 8043   4.206   1.302   2.198  0.7794 -0.0525  0.7772
 2484SOL    HW1 8044   4.185   1.356   2.274 -0.1965 -0.4625  0.8122
 2484SOL    HW2 8045   4.278   1.348   2.155 -0.0385  1.2906  0.7856
 2485SOL     OW 8046   3.995   0.129   1.915  0.1492  0.0490 -0.3274
 2485SOL    HW1 8047   3.990   0.162   2.005 -1.0961  0.5018 -0.5427
 2485SOL    HW2 8048   3.948   0.046   1.918  0.3254 -0.0566 -0.5089
 2486SOL     OW 8049   5.083   0.886   1.969  0.2182  0.1102  0.0932
 2486SOL    HW1 8050   5.049   0.959   1.918 -1.4524 -0.0762  0.8636
 2486SOL    HW2 8051   5.176   0.885   1.950  0.1173  1.8256 -0.6886
 2487SOL     OW 8052   6.238   0.960   1.311  0.3437 -0.4936  0.4325
 2487SOL    HW1 8053   6.262   0.874   1.345  1.6118  0.1289  1.2060
 2487SOL    HW2 8054   6.322   1.002   1.291 -0.2572  0.5376 -0.0070
 2488SOL     OW 8055   4.018   0.329   1.741  0.1948 -0.1083  0.3081
 2488SOL    HW1 8056   4.005   0.299   1.831 -1.6297  0.2094  0.1911
 2488SOL    HW2 8057   4.059   0.255   1.696 -1.1038 -1.1983  0.8465
 2489SOL     OW 8058   4.844   0.957   2.892 -0.0229  0.0509 -0.1536
 2489SOL    HW1 8059   4.757   0.959   2.854 -0.1727 -0.2276  0.1704
 2489SOL    HW2 8060   4.833   0.987   2.982  0.0140 -1.1193  0.2564
 2490SOL     OW 8061   4.894   0.176   1.336  0.2908  0.2449  0.2947
 2490SOL    HW1 8062   4.903   0.115   1.409 -1.8236 -0.0093  0.3940
 2490SOL    HW2 8063   4.839   0.247   1.370  0.7556  1.0210 -0.5253
 2491SOL     OW 8064   4.766   1.127   2.097  0.3141  0.2017 -0.3897
 2491SOL    HW1 8065   4.841   1.128   2.156  0.9914  0.7024 -1.2439
 2491SOL    HW2 8066   4.747   1.219   2.080 -0.5428  0.0853 -0.1354
 2492SOL     OW 8067   2.792   1.212   0.590 -1.0397  0.2120 -0.3466
 2492SOL    HW1 8068   2.828   1.151   0.526 -0.4934 -0.7321  0.8157
 2492SOL    HW2 8069   2.828   1.183   0.674 -0.6321  2.2376  0.2352
 2493SOL     OW 8070   4.882   0.701   2.371  0.1779 -0.4697 -0.4346
 2493SOL    HW1 8071   4.810   0.733   2.317  1.4544  2.9959 -0.3711
 2493SOL    HW2 8072   4.961   0.727   2.324  1.3529 -1.3024  0.9850
 2494SOL     OW 8073   4.247   0.618   0.477 -0.1451  0.0487 -0.5894
 2494SOL    HW1 8074   4.237   0.686   0.410 -0.3114 -0.6630 -1.2970
 2494SOL    HW2 8075   4.321   0.566   0.447 -1.2775 -1.3065 -1.1390
 2495SOL     OW 8076   3.130   0.548   3.160 -0.0584  0.1308 -0.3802
 2495SOL    HW1 8077   3.037   0.538   3.139 -0.1673 -0.4241  0.3154
 2495SOL    HW2 8078   3.137   0.524   3.252  0.6368  1.0859 -0.1714
 2496SOL     OW 8079   3.390   5.308   2.461  0.2294  0.4270  0.0519
 2496SOL    HW1 8080   3.481   5.325   2.485  0.4717 -1.2197  0.3862
 2496SOL    HW2 8081   3.352   5.266   2.538 -0.7484  0.8240 -0.1961
 2497SOL     OW 8082   3.716   0.012   1.845  0.1944  0.6502  0.1502
 2497SOL    HW1 8083   3.644  -0.038   1.807  1.1853 -1.3684  0.8178
 2497SOL    HW2 8084   3.789   0.001   1.784  0.5927  0.7876  0.5974
 2498SOL     OW 8085   4.447   4.658   1.777 -0.3672  0.1354 -0.0390
 2498SOL    HW1 8086   4.379   4.719   1.751 -0.0093  0.7350  0.3946
 2498SOL    HW2 8087   4.522   4.680   1.722  0.0256  0.6498  0.6815
 2499SOL     OW 8088   7.131   0.434   1.948 -0.0349  0.2385  0.0369
 2499SOL    HW1 8089   7.136   0.380   1.869 -1.8837 -0.2058  0.1832
 2499SOL    HW2 8090   7.195   0.395   2.008 -1.2076 -1.7503  0.0796
 2500SOL     OW 8091   5.581   0.921   2.022  0.1231 -0.4404  0.3106
 2500SOL    HW1 8092   5.599   0.961   2.107  3.4654 -1.4390  0.2141
 2500SOL    HW2 8093   5.613   0.832   2.030 -1.2645 -1.1695 -1.4750
 2501SOL     OW 8094   5.068   2.140   2.591 -0.0028  0.0919 -0.0066
 2501SOL    HW1 8095   5.137   2.126   2.656 -0.1369 -0.9501 -0.0695
 2501SOL    HW2 8096   5.101   2.100   2.511 -0.3274  0.3397 -0.2700
 2502SOL     OW 8097   4.405   0.042   1.803  0.3280 -0.5379  0.0026
 2502SOL    HW1 8098   4.315   0.030   1.831  0.6440 -0.9130  0.8705
 2502SOL    HW2 8099   4.450   0.079   1.879  0.6309  0.9174 -0.8284
 2503SOL     OW 8100   4.796   1.304   2.758 -0.2824 -0.1370  0.3909
 2503SOL    HW1 8101   4.836   1.343   2.680  0.2375  0.2276  0.8302
 2503SOL    HW2 8102   4.715   1.264   2.726 -0.4328  0.6279 -0.2110
 2504SOL     OW 8103   5.660   0.652   2.662  0.2739 -0.5962  0.1235
 2504SOL    HW1 8104   5.670   0.674   2.754  0.5489  0.1192 -0.0734
 2504SOL    HW2 8105   5.586   0.590   2.660  0.1408 -0.4640  0.7961
 2505SOL     OW 8106   4.806   5.098   0.543 -0.3067  0.4522  0.2448
 2505SOL    HW1 8107   4.809   5.083   0.638  0.6531  0.4692  0.2239
 2505SOL    HW2 8108   4.718   5.068   0.517 -0.4805  0.1957  1.0909
 2506SOL     OW 8109   5.869   0.891   0.102 -0.0340 -0.3399  0.4408
 2506SOL    HW1 8110   5.906   0.828   0.164 -1.4208 -0.5499  1.0878
 2506SOL    HW2 8111   5.789   0.923   0.145 -1.1727 -0.6728 -1.3284
 2507SOL     OW 8112   5.653   0.389   0.180 -0.2525  0.8455  0.2322
 2507SOL    HW1 8113   5.642   0.297   0.205 -0.1809  1.2589  1.9647
 2507SOL    HW2 8114   5.674   0.387   0.087 -3.3661 -0.6822 -0.5499
 2508SOL     OW 8115   3.988   0.477   0.579  0.0138 -0.1595 -0.7487
 2508SOL    HW1 8116   4.031   0.551   0.537  0.7449 -1.0919 -1.7094
 2508SOL    HW2 8117   4.037   0.464   0.661 -0.3413  0.6202 -0.4085
 2509SOL     OW 8118   5.025   1.364   3.174  0.0448  0.0287 -0.5710
 2509SOL    HW1 8119   4.999   1.447   3.212 -1.3061 -0.1664 -1.0105
 2509SOL    HW2 8120   4.943   1.320   3.151  0.6338 -2.0682  0.9843
 2510SOL     OW 8121   3.750   4.752   0.436 -0.0115  0.0577 -0.0877
 2510SOL    HW1 8122   3.768   4.755   0.530 -0.8048 -0.0415  0.0750
 2510SOL    HW2 8123   3.734   4.843   0.411  2.1849  0.3786 -0.5576
 2511SOL     OW 8124   3.546   1.050   1.834 -0.4115 -0.1640  0.0181
 2511SOL    HW1 8125   3.474   1.094   1.879 -1.5087 -0.3484 -1.4824
 2511SOL    HW2 8126   3.611   1.120   1.819  0.0105 -0.1172  1.8674
 2512SOL     OW 8127   5.491   0.819   0.238 -0.0930 -0.4476  0.3496
 2512SOL    HW1 8128   5.515   0.787   0.151  1.5019 -0.4494  0.7536
 2512SOL    HW2 8129   5.396   0.809   0.242  0.0712 -2.9466 -0.4016
 2513SOL     OW 8130   5.188   1.064   2.533  0.1932 -0.4316  0.0041
 2513SOL    HW1 8131   5.114   1.019   2.576 -0.8978  1.6840  0.4660
 2513SOL    HW2 8132   5.206   1.139   2.590 -0.0288  1.3839 -2.1993
 2514SOL     OW 8133   2.620   1.607   3.088  0.6573 -0.2304  0.1848
 2514SOL    HW1 8134   2.550   1.589   3.151  0.3304 -1.0903 -0.4005
 2514SOL    HW2 8135   2.666   1.683   3.124  0.3318 -0.5562  1.3403
 2515SOL     OW 8136   4.472   0.379   3.415 -0.6381  0.1789  0.1319
 2515SOL    HW1 8137   4.506   0.468   3.416  0.5880 -0.2740  0.4100
 2515SOL    HW2 8138   4.402   0.381   3.350  0.7329  0.8651 -1.3844
 2516SOL     OW 8139   4.250   0.195   2.685  0.5940 -0.0910 -0.1766
 2516SOL    HW1 8140   4.326   0.137   2.676  1.2518  0.5882  0.7232
 2516SOL    HW2 8141   4.282   0.280   2.656  0.3070  0.2919  0.6000
 2517SOL     OW 8142   5.277   1.286   3.361  0.3804 -0.3539  0.3807
 2517SOL    HW1 8143   5.240   1.225   3.297  1.4074 -0.3452 -0.2607
 2517SOL    HW2 8144   5.255   1.373   3.326  1.2131 -0.3434 -0.1673
 2518SOL     OW 8145   5.365   1.401   0.889 -0.1704 -0.1535 -0.5943
 2518SOL    HW1 8146   5.377   1.370   0.979  0.3702  0.0329 -0.5971
 2518SOL    HW2 8147   5.274   1.380   0.868 -0.4403  0.2261  0.1609
 2519SOL     OW 8148   5.639   0.051   0.807  0.2414  0.1546  0.3797
 2519SOL    HW1 8149   5.696   0.032   0.882  2.3817 -0.3397 -1.2755
 2519SOL    HW2 8150   5.556   0.006   0.828  0.6860  0.2317  2.5145
 2520SOL     OW 8151   2.746   0.730   3.312 -0.5031  0.7820 -0.1067
 2520SOL    HW1 8152   2.785   0.649   3.277 -0.2212  0.1080  1.6614
 2520SOL    HW2 8153   2.704   0.771   3.236  0.9340 -0.0755 -1.4279
 2521SOL     OW 8154   3.538   5.338   0.525 -0.2548 -0.7215  0.3913
 2521SOL    HW1 8155   3.570   5.249   0.510 -0.7143 -0.5997 -1.6291
 2521SOL    HW2 8156   3.531   5.376   0.437  0.7360  1.6086  1.2384
 2522SOL     OW 8157   6.844   0.647   3.110  0.9254  0.3258 -0.5129
 2522SOL    HW1 8158   6.919   0.632   3.052  1.3534  0.0330  0.1028
 2522SOL    HW2 8159   6.850   0.577   3.175 -0.5170 -0.3700 -1.0820
 2523SOL     OW 8160   4.312   0.863   2.582  0.0996 -0.1443  0.1808
 2523SOL    HW1 8161   4.401   0.897   2.567 -0.0248 -0.0493 -0.3561
 2523SOL    HW2 8162   4.281   0.838   2.495 -0.7556  0.6846  0.2320
 2524SOL     OW 8163   5.581   0.742   3.278 -0.2727  0.2335  0.0869
 2524SOL    HW1 8164   5.538   0.775   3.200 -2.2959  0.6705  1.3245
 2524SOL    HW2 8165   5.602   0.651   3.257 -0.8686  0.3196 -0.9237
 2525SOL     OW 8166   5.743   0.434   1.551 -0.0880 -0.4856  0.1022
 2525SOL    HW1 8167   5.797   0.496   1.502  0.7846 -1.3227 -0.0298
 2525SOL    HW2 8168   5.781   0.434   1.639 -0.6882 -0.1212  0.3613
 2526SOL     OW 8169   4.767   5.279   1.240  0.0941  0.1391 -0.1663
 2526SOL    HW1 8170   4.684   5.305   1.200  1.3773  2.3287 -1.6148
 2526SOL    HW2 8171   4.743   5.250   1.328 -2.6037 -2.8679 -1.6795
 2527SOL     OW 8172   2.750   0.382   0.076 -0.4675 -0.3547  0.4219
 2527SOL    HW1 8173   2.712   0.462   0.113 -0.6771 -0.0629 -0.3919
 2527SOL    HW2 8174   2.684   0.315   0.093 -1.5523  0.2224 -1.2847
 2528SOL     OW 8175   3.681   4.399   3.232 -0.4556 -0.1952 -0.5545
 2528SOL    HW1 8176   3.597   4.443   3.245 -0.1732  0.1345  0.1796
 2528SOL    HW2 8177   3.743   4.451   3.283  0.0007 -1.0626 -0.2124
 2529SOL     OW 8178   4.250   5.308   1.971  0.5735  0.2610 -0.0165
 2529SOL    HW1 8179   4.243   5.217   1.997 -0.6632  1.0591  2.7846
 2529SOL    HW2 8180   4.206   5.313   1.886  0.2620 -1.6451  0.0011
 2530SOL     OW 8181   5.390   2.401   2.419  0.1018  0.5233  0.2169
 2530SOL    HW1 8182   5.372   2.341   2.492  1.7096 -0.3312 -0.0355
 2530SOL    HW2 8183   5.337   2.478   2.438  0.7214  0.4693  2.4957
 2531SOL     OW 8184   3.826   0.554   0.256 -0.0370  0.7036 -0.0629
 2531SOL    HW1 8185   3.835   0.648   0.268 -1.0200  0.5579  2.2918
 2531SOL    HW2 8186   3.742   0.532   0.297  0.9672 -1.4260  1.0350
 2532SOL     OW 8187   5.142   0.294   3.183  0.1679  0.2863 -0.3434
 2532SOL    HW1 8188   5.146   0.389   3.171 -1.3907  0.3090 -0.7935
 2532SOL    HW2 8189   5.096   0.261   3.107  1.8973 -1.0267 -0.9048
 2533SOL     OW 8190   6.283   0.684   1.356 -0.0660  0.2374  0.0371
 2533SOL    HW1 8191   6.200   0.656   1.319  0.6884 -0.9187 -0.8642
 2533SOL    HW2 8192   6.285   0.643   1.443  0.4512 -1.5787 -0.7640
 2534SOL     OW 8193   4.171   5.333   1.679  0.3940  0.1591  0.3539
 2534SOL    HW1 8194   4.204   5.415   1.641 -0.3513 -0.2819 -1.3629
 2534SOL    HW2 8195   4.085   5.357   1.715  0.8311  0.4421  1.2364
 2535SOL     OW 8196   4.596   1.277   3.274  0.0442  0.0485  0.1028
 2535SOL    HW1 8197   4.509   1.289   3.236  0.2197  3.3154  0.5161
 2535SOL    HW2 8198   4.657   1.299   3.203  0.6212 -2.0362 -0.1289
 2536SOL     OW 8199   4.782   0.065   0.439 -0.2464 -0.1257  0.2608
 2536SOL    HW1 8200   4.758   0.157   0.451  1.2724  0.3218  0.0827
 2536SOL    HW2 8201   4.722   0.017   0.495 -0.8411  1.0025  0.6248
 2537SOL     OW 8202   3.547   0.317   3.282  0.0841 -0.4917 -0.1585
 2537SOL    HW1 8203   3.553   0.244   3.344 -1.5796  0.3539  1.0827
 2537SOL    HW2 8204   3.517   0.276   3.201 -2.0349 -1.1221  0.8498
 2538SOL     OW 8205   5.897   0.910   0.438 -0.4478 -0.2292  0.0440
 2538SOL    HW1 8206   5.924   0.987   0.489 -0.0465 -0.6890  0.5493
 2538SOL    HW2 8207   5.979   0.864   0.420 -0.4471  0.4837 -1.9886
 2539SOL     OW 8208   2.915   0.242   1.318 -0.1303 -0.2511  0.2139
 2539SOL    HW1 8209   2.893   0.240   1.225 -0.6212  0.0159  0.3252
 2539SOL    HW2 8210   2.992   0.299   1.323  0.3460 -0.8442 -0.1168
 2540SOL     OW 8211   5.172   1.756   3.339  0.2336 -0.5493 -0.4216
 2540SOL    HW1 8212   5.211   1.682   3.292 -0.0114 -1.6932  1.1079
 2540SOL    HW2 8213   5.089   1.771   3.294  1.2576  0.2824 -2.1315
 2541SOL     OW 8214   4.678   1.634   3.185 -0.2455 -0.0495  0.0770
 2541SOL    HW1 8215   4.687   1.715   3.236  1.1460  1.3050 -2.1672
 2541SOL    HW2 8216   4.592   1.641   3.144 -0.6529 -0.3324  0.8612
 2542SOL     OW 8217   4.754   1.240   3.503  0.0520  0.2628 -0.2553
 2542SOL    HW1 8218   4.792   1.324   3.479 -1.5801  0.8662 -0.8280
 2542SOL    HW2 8219   4.703   1.214   3.427 -0.3511 -0.7212  0.3335
 2543SOL     OW 8220   2.621   1.431   0.601  0.0287 -0.1749 -0.5328
 2543SOL    HW1 8221   2.615   1.458   0.510  1.5429  1.2367 -0.2728
 2543SOL    HW2 8222   2.649   1.340   0.598 -0.0890 -0.1862 -1.4831
 2544SOL     OW 8223   4.041   0.879   2.703  0.0209 -0.0155  0.3058
 2544SOL    HW1 8224   4.045   0.784   2.702  0.0916 -0.0475  1.8544
 2544SOL    HW2 8225   4.128   0.908   2.677  0.5085 -0.4056  1.4577
 2545SOL     OW 8226   4.311   0.448   1.051  0.3688  0.5637  0.9925
 2545SOL    HW1 8227   4.397   0.468   1.016  0.9817 -0.8220  1.6223
 2545SOL    HW2 8228   4.257   0.524   1.029  1.8453  1.6249  0.9452
 2546SOL     OW 8229   4.867   0.470   3.543  0.1595  0.4177  0.4911
 2546SOL    HW1 8230   4.804   0.405   3.573 -0.0968  0.0520 -0.7599
 2546SOL    HW2 8231   4.907   0.431   3.465 -0.5647  2.0483 -0.7655
 2547SOL     OW 8232   4.071   0.431   0.266 -0.0029  0.8080  0.1782
 2547SOL    HW1 8233   3.991   0.481   0.285  0.3852  1.1692  0.8803
 2547SOL    HW2 8234   4.138   0.469   0.323  0.4433 -0.1284  0.3081
 2548SOL     OW 8235   4.774   1.004   3.156  0.6006 -0.2463  0.0392
 2548SOL    HW1 8236   4.780   0.913   3.186  0.9258 -0.5724 -0.9753
 2548SOL    HW2 8237   4.684   1.029   3.176 -0.0320 -1.3689 -1.1810
 2549SOL     OW 8238   4.950   0.439   2.443 -0.1724  1.0145 -0.0432
 2549SOL    HW1 8239   4.925   0.521   2.401  1.1406  0.2862 -2.3726
 2549SOL    HW2 8240   4.866   0.396   2.463 -0.9100  1.0771 -2.6565
 2550SOL     OW 8241   4.222   1.531   0.269 -0.0962 -0.0882 -0.4164
 2550SOL    HW1 8242   4.260   1.516   0.355  0.8799  0.3150 -0.7605
 2550SOL    HW2 8243   4.154   1.597   0.283 -0.6403 -0.7551  0.1952
 2551SOL     OW 8244   5.142   0.581   1.873  0.2518 -0.2360  0.0913
 2551SOL    HW1 8245   5.224   0.600   1.828 -1.0079 -0.3206 -2.4537
 2551SOL    HW2 8246   5.080   0.646   1.838 -0.9763 -0.7343  1.2581
 2552SOL     OW 8247   5.509   1.300   2.845 -0.1483 -0.1242  0.2646
 2552SOL    HW1 8248   5.538   1.290   2.754  2.1408 -1.5074  1.0740
 2552SOL    HW2 8249   5.430   1.246   2.851  0.6624 -1.4479 -0.5060
 2553SOL     OW 8250   4.678   2.626   2.715  0.1970  0.2506 -0.2089
 2553SOL    HW1 8251   4.731   2.705   2.725 -0.2988  0.4913  0.5863
 2553SOL    HW2 8252   4.588   2.655   2.730 -0.2861 -0.0048 -2.2231
 2554SOL     OW 8253   5.290   1.151   2.898  0.0920  0.0942 -0.7708
 2554SOL    HW1 8254   5.212   1.134   2.846 -0.1428  0.6648 -0.6079
 2554SOL    HW2 8255   5.263   1.133   2.988  0.2532 -0.0485 -0.7490
 2555SOL     OW 8256   3.516   0.546   1.841 -0.1094  0.0594 -0.2270
 2555SOL    HW1 8257   3.542   0.455   1.853 -0.8496 -0.1658 -0.3053
 2555SOL    HW2 8258   3.505   0.555   1.746  1.1602  0.5687 -0.3404
 2556SOL     OW 8259   5.468   0.486   1.567  0.4584 -0.2990 -0.2965
 2556SOL    HW1 8260   5.561   0.463   1.568  0.2490 -1.2789  1.7110
 2556SOL    HW2 8261   5.426   0.415   1.616 -1.3841  0.0319 -1.3171
 2557SOL     OW 8262   5.476   0.821   3.038  0.2556 -0.2086 -0.8300
 2557SOL    HW1 8263   5.382   0.837   3.038  0.2246 -0.3713 -1.8565
 2557SOL    HW2 8264   5.515   0.904   3.011  0.3743 -0.3301 -1.0325
 2558SOL     OW 8265   4.815   4.781   1.958 -0.0034 -0.1641  0.0439
 2558SOL    HW1 8266   4.893   4.737   1.926 -0.3183 -1.0332  0.4301
 2558SOL    HW2 8267   4.760   4.711   1.992 -2.0826  0.0966 -2.5005
 2559SOL     OW 8268   4.894   2.032   0.428  0.3448 -0.7089 -0.1289
 2559SOL    HW1 8269   4.915   2.008   0.338  0.3425 -0.0051 -0.3208
 2559SOL    HW2 8270   4.969   2.082   0.459 -0.5440  0.9388 -0.4814
 2560SOL     OW 8271   4.529   1.062   2.815  0.2868  0.8239  0.1869
 2560SOL    HW1 8272   4.456   1.119   2.789 -0.5025 -0.7354 -1.2135
 2560SOL    HW2 8273   4.523   1.058   2.911 -0.7220  1.7040  0.1763
 2561SOL     OW 8274   6.213   1.789   3.129 -0.2031 -0.2113 -0.3169
 2561SOL    HW1 8275   6.249   1.866   3.085  1.0248 -0.2546  0.5537
 2561SOL    HW2 8276   6.126   1.817   3.159  1.0428  1.6074  1.8803
 2562SOL     OW 8277   5.898   5.257   2.636  0.2167  0.1592 -0.3498
 2562SOL    HW1 8278   5.899   5.319   2.709  0.1698  1.3010 -1.2915
 2562SOL    HW2 8279   5.969   5.195   2.655 -1.5290 -1.2652  2.0424
 2563SOL     OW 8280   2.922   0.765   1.789  0.8130 -0.0524 -0.7216
 2563SOL    HW1 8281   2.972   0.838   1.753  2.8829 -0.6571  0.7562
 2563SOL    HW2 8282   2.844   0.806   1.829  0.7161  1.0482 -1.9714
 2564SOL     OW 8283   5.835   3.116   2.735 -0.2318 -0.1511 -0.1131
 2564SOL    HW1 8284   5.927   3.096   2.723 -0.0968 -0.4997  1.3723
 2564SOL    HW2 8285   5.807   3.062   2.809 -1.4517  0.4773 -0.0782
 2565SOL     OW 8286   2.689   5.314   0.694 -0.3589 -0.1477 -0.1603
 2565SOL    HW1 8287   2.615   5.372   0.675  0.4745  0.5893 -1.3159
 2565SOL    HW2 8288   2.733   5.355   0.768  0.8760  1.3930 -1.6743
 2566SOL     OW 8289   4.759   1.087   2.430 -0.0129  0.8119 -0.0670
 2566SOL    HW1 8290   4.845   1.077   2.389 -0.5219 -1.3379 -0.7578
 2566SOL    HW2 8291   4.717   1.158   2.383  0.8442  0.8897 -0.7246
 2567SOL     OW 8292   6.072   1.162   2.085 -0.2010  0.3592  0.2700
 2567SOL    HW1 8293   6.042   1.071   2.080  1.9272 -0.5585  2.0435
 2567SOL    HW2 8294   6.036   1.194   2.168 -0.4290  0.9413 -0.0508
 2568SOL     OW 8295   5.367   1.578   0.101 -0.5087  0.0174  0.3136
 2568SOL    HW1 8296   5.404   1.611   0.019  0.7016 -0.0053  0.8267
 2568SOL    HW2 8297   5.426   1.507   0.126 -1.7609 -1.0114  0.4133
 2569SOL     OW 8298   6.553   0.906   3.221 -0.2680  0.0079  0.1304
 2569SOL    HW1 8299   6.515   0.871   3.141  1.8047  0.4537 -1.1348
 2569SOL    HW2 8300   6.488   0.967   3.255 -1.0589  0.0620 -1.4024
 2570SOL     OW 8301   4.081   5.407   2.723 -0.1946 -0.7069 -0.1033
 2570SOL    HW1 8302   4.162   5.450   2.696 -0.0458 -0.8082  0.1793
 2570SOL    HW2 8303   4.019   5.426   2.652  0.2800 -1.2494 -0.6684
 2571SOL     OW 8304   5.766   0.241   1.956 -0.3299 -0.3634 -0.0017
 2571SOL    HW1 8305   5.781   0.224   2.049  0.8639 -0.4960 -0.1980
 2571SOL    HW2 8306   5.695   0.181   1.932  0.7845 -1.8883  0.3493
 2572SOL     OW 8307   2.063   1.443   1.752  0.1844 -0.1343  0.6598
 2572SOL    HW1 8308   2.037   1.533   1.768  0.2399  0.2208 -1.0768
 2572SOL    HW2 8309   2.153   1.449   1.722 -0.0378 -0.6932 -0.1442
 2573SOL     OW 8310   5.723   1.606   3.209 -0.3491  0.4708  0.4854
 2573SOL    HW1 8311   5.765   1.582   3.127 -0.3617  0.5482  0.4571
 2573SOL    HW2 8312   5.779   1.674   3.247 -0.4491  0.5739  0.4474
 2574SOL     OW 8313   5.299   1.556   0.386  0.4958 -0.0091 -0.1369
 2574SOL    HW1 8314   5.253   1.475   0.409  2.6277 -1.2179  0.1619
 2574SOL    HW2 8315   5.297   1.559   0.291  0.6326 -0.5707 -0.1605
 2575SOL     OW 8316   4.195   0.937   0.982 -0.1175 -0.0643  0.2752
 2575SOL    HW1 8317   4.230   0.847   0.978  0.5649  0.1864  0.3824
 2575SOL    HW2 8318   4.265   0.991   0.945 -0.5661  0.4186  0.1171
 2576SOL     OW 8319   4.177   5.009   3.117  0.0858 -0.3564  0.3694
 2576SOL    HW1 8320   4.246   4.947   3.093  1.1601  0.6594  0.7167
 2576SOL    HW2 8321   4.223   5.076   3.168 -0.8385  1.2529 -0.8285
 2577SOL     OW 8322   3.947   0.672   2.300  0.6876 -0.3132 -0.2512
 2577SOL    HW1 8323   3.997   0.751   2.280  0.5179  0.2474  1.3885
 2577SOL    HW2 8324   3.972   0.610   2.232 -0.7088  1.7423 -2.8070
 2578SOL     OW 8325   5.893   1.237   2.604 -0.2060  0.2990 -0.2388
 2578SOL    HW1 8326   5.933   1.221   2.690 -1.7671  0.1509  0.4954
 2578SOL    HW2 8327   5.900   1.153   2.559 -0.0496  0.1630  0.0345
 2579SOL     OW 8328   3.400   4.799   1.021  0.0271  0.0171 -0.1567
 2579SOL    HW1 8329   3.311   4.774   0.995 -0.6961  0.1592  2.0336
 2579SOL    HW2 8330   3.389   4.859   1.095  1.9441  0.4423 -0.1466
 2580SOL     OW 8331   5.923   1.952   2.580 -0.0492 -0.4316  0.0880
 2580SOL    HW1 8332   5.912   1.962   2.486 -1.2125 -1.1130  0.1283
 2580SOL    HW2 8333   5.838   1.921   2.611  0.4263 -0.5854  1.3076
 2581SOL     OW 8334   5.074   0.757   0.473  0.2246  0.6636  0.0717
 2581SOL    HW1 8335   5.122   0.709   0.406 -1.2802  1.8437 -1.9473
 2581SOL    HW2 8336   5.090   0.849   0.453 -0.9643  1.0538  0.7916
 2582SOL     OW 8337   5.908   2.531   2.703  0.0178 -0.4317 -0.3091
 2582SOL    HW1 8338   5.877   2.606   2.652 -0.3873 -0.7383 -0.5161
 2582SOL    HW2 8339   5.987   2.502   2.656 -0.2155 -0.5616 -0.6212
 2583SOL     OW 8340   4.677   0.625   1.216 -0.2426 -0.2600  0.4124
 2583SOL    HW1 8341   4.625   0.703   1.198  0.1681 -0.3998 -1.6399
 2583SOL    HW2 8342   4.752   0.633   1.157 -0.4260 -2.4255 -0.1685
 2584SOL     OW 8343   4.283   1.498   0.540  0.1176  0.5473 -0.9109
 2584SOL    HW1 8344   4.338   1.572   0.566  0.0909  0.8332 -1.6616
 2584SOL    HW2 8345   4.327   1.421   0.577 -1.6761  1.1379  3.0307
 2585SOL     OW 8346   5.791   0.155   2.280 -0.5686  0.1121  0.6542
 2585SOL    HW1 8347   5.751   0.242   2.289 -0.2561  0.1215  2.2281
 2585SOL    HW2 8348   5.871   0.159   2.332 -0.1987 -0.9255  0.2017
 2586SOL     OW 8349   5.730   0.884   2.511 -0.5721  0.0341  0.1971
 2586SOL    HW1 8350   5.740   0.789   2.517 -1.0241  0.0075  0.5483
 2586SOL    HW2 8351   5.644   0.902   2.549  0.2845  0.7614  1.8969
 2587SOL     OW 8352   4.257   0.579   1.733  0.3829  0.3090 -0.3733
 2587SOL    HW1 8353   4.350   0.600   1.727  1.0030 -2.2419 -0.5849
 2587SOL    HW2 8354   4.226   0.583   1.643  0.2085  1.3759 -0.2776
 2588SOL     OW 8355   5.472   0.445   2.902  0.5634 -0.1610 -0.2625
 2588SOL    HW1 8356   5.431   0.481   2.981 -0.1895 -2.4107  0.4537
 2588SOL    HW2 8357   5.446   0.504   2.832  1.5045  2.0846  1.1782
 2589SOL     OW 8358   3.810   0.410   1.040 -0.0224  0.2125 -0.1238
 2589SOL    HW1 8359   3.865   0.387   0.965  0.9916 -0.4670  0.8158
 2589SOL    HW2 8360   3.851   0.488   1.077 -0.2382  0.2585  0.0208
 2590SOL     OW 8361   4.344   0.779   3.031 -0.3786 -0.0582 -0.4603
 2590SOL    HW1 8362   4.310   0.742   2.950  0.4002 -1.6816 -0.1006
 2590SOL    HW2 8363   4.273   0.767   3.095 -1.2788  1.9030 -1.0244
 2591SOL     OW 8364   4.571   0.086   2.460 -0.3223  0.1084  0.5768
 2591SOL    HW1 8365   4.657   0.094   2.419 -0.0027 -0.2530  1.1650
 2591SOL    HW2 8366   4.511   0.129   2.399  0.3885  1.0849  0.5473
 2592SOL     OW 8367   5.855   1.669   2.919  0.5825  0.1408  0.5211
 2592SOL    HW1 8368   5.826   1.596   2.864  1.3062 -0.5680  1.0590
 2592SOL    HW2 8369   5.793   1.740   2.899  1.6185  0.4055 -2.2570
 2593SOL     OW 8370   6.171   0.222   2.626 -0.3804 -0.2230 -0.4521
 2593SOL    HW1 8371   6.265   0.219   2.613 -0.1727 -0.4148  0.9403
 2593SOL    HW2 8372   6.160   0.256   2.715 -1.6678  1.2277 -1.1228
 2594SOL     OW 8373   4.384   0.450   2.657  0.1653  0.3107 -1.1097
 2594SOL    HW1 8374   4.430   0.395   2.720  1.3021  0.2689 -1.9478
 2594SOL    HW2 8375   4.450   0.512   2.626 -0.8488  1.5469 -0.8810
 2595SOL     OW 8376   4.334   0.817   3.444 -0.0445  0.3270  0.0971
 2595SOL    HW1 8377   4.245   0.832   3.474  0.3497  0.8658  1.0531
 2595SOL    HW2 8378   4.330   0.735   3.395 -0.7787 -0.4123  1.3624
 2596SOL     OW 8379   5.771   0.569   2.261  0.6414 -0.8489 -0.2996
 2596SOL    HW1 8380   5.849   0.570   2.316 -0.4740  0.8071  1.3579
 2596SOL    HW2 8381   5.713   0.504   2.301 -0.7275  1.3115  1.4266
 2597SOL     OW 8382   3.270   5.275   2.703 -0.2072  0.1183 -0.3125
 2597SOL    HW1 8383   3.330   5.222   2.757 -0.7179  1.1544  1.3458
 2597SOL    HW2 8384   3.297   5.365   2.718  0.3744  0.4148 -2.7772
 2598SOL     OW 8385   6.841   1.207   1.875 -0.0059 -0.0306 -0.3615
 2598SOL    HW1 8386   6.817   1.154   1.951  0.0654 -1.2146 -1.1545
 2598SOL    HW2 8387   6.868   1.291   1.913 -0.3694 -0.4534  0.8908
 2599SOL     OW 8388   4.423   2.997   0.825 -0.1702 -0.4295 -0.2634
 2599SOL    HW1 8389   4.514   2.968   0.826 -0.4771 -1.4412 -0.9033
 2599SOL    HW2 8390   4.407   3.023   0.735 -0.3832  0.2392 -0.0423
 2600SOL     OW 8391   4.280   2.345   2.303  0.2185  0.2319  0.2046
 2600SOL    HW1 8392   4.302   2.292   2.227 -1.5514 -0.1150 -0.1050
 2600SOL    HW2 8393   4.351   2.410   2.308  2.0495 -1.6503  0.1766
 2601SOL     OW 8394   4.743   0.346   3.228  0.3027 -0.0396 -0.3346
 2601SOL    HW1 8395   4.697   0.349   3.312  1.3232  1.1637  0.2185
 2601SOL    HW2 8396   4.752   0.253   3.208  0.5322 -0.3658  1.1753
 2602SOL     OW 8397   5.087   0.890   3.252 -0.0319 -0.0859 -0.4834
 2602SOL    HW1 8398   5.003   0.883   3.297  1.0469 -0.0357  1.6272
 2602SOL    HW2 8399   5.153   0.889   3.321  1.6448  1.8372 -1.9046
 2603SOL     OW 8400   4.976   0.909   2.579 -0.2227  0.4934  0.2551
 2603SOL    HW1 8401   4.969   0.852   2.503 -0.1804  0.1277  0.5198
 2603SOL    HW2 8402   4.888   0.945   2.592 -0.4311 -0.1019  0.5339
 2604SOL     OW 8403   4.508   0.644   1.635 -0.5826 -0.3878 -0.0419
 2604SOL    HW1 8404   4.509   0.549   1.625 -0.2182 -0.4620  0.6167
 2604SOL    HW2 8405   4.600   0.670   1.632 -0.5952 -0.1922  0.9278
 2605SOL     OW 8406   5.712   1.506   1.847  0.3577 -0.1330  0.2181
 2605SOL    HW1 8407   5.682   1.458   1.770 -0.1983  0.8570 -0.2011
 2605SOL    HW2 8408   5.803   1.479   1.858  0.1976 -0.9230 -0.2746
 2606SOL     OW 8409   4.570   0.144   1.999  0.5729  0.0806 -0.1059
 2606SOL    HW1 8410   4.529   0.227   2.020  2.3978  1.1257 -0.4976
 2606SOL    HW2 8411   4.573   0.097   2.083  0.2211  0.7142  0.2698
 2607SOL     OW 8412   5.456   5.364   0.514  0.5843  0.0320  0.0166
 2607SOL    HW1 8413   5.409   5.291   0.554  1.8594 -1.0723 -0.4361
 2607SOL    HW2 8414   5.401   5.440   0.530 -1.1381 -1.1415 -0.1300
 2608SOL     OW 8415   4.188   2.143   1.535 -1.1777 -0.3743  0.0283
 2608SOL    HW1 8416   4.125   2.153   1.464 -3.8004 -0.2382  2.2165
 2608SOL    HW2 8417   4.189   2.229   1.578  1.0175 -0.1905 -0.3016
 2609SOL     OW 8418   4.280   1.070   3.286 -0.1912  0.4892 -0.3131
 2609SOL    HW1 8419   4.245   0.988   3.320  2.5200 -1.3471 -1.4972
 2609SOL    HW2 8420   4.315   1.115   3.363  0.7364 -0.8446  0.1002
 2610SOL     OW 8421   3.128   1.380   0.808 -0.1367  0.1924  0.7477
 2610SOL    HW1 8422   3.046   1.422   0.833 -1.2329 -0.5751 -1.3565
 2610SOL    HW2 8423   3.144   1.408   0.718  3.6167  2.8212  1.9835
 2611SOL     OW 8424   3.974   1.273   0.027  0.1540 -0.3160 -0.4895
 2611SOL    HW1 8425   3.889   1.231   0.039  0.3990 -0.9279 -0.8122
 2611SOL    HW2 8426   3.976   1.343   0.092 -0.7849  0.0072 -0.7972
 2612SOL     OW 8427   6.271   2.642   0.050 -0.0109 -0.1101  1.2859
 2612SOL    HW1 8428   6.197   2.604   0.003  1.6802 -1.2607 -0.6733
 2612SOL    HW2 8429   6.260   2.613   0.140 -1.6860 -0.6462  0.9496
 2613SOL     OW 8430   5.011   1.636   0.308  0.3005  0.0941 -0.1153
 2613SOL    HW1 8431   5.022   1.545   0.336  0.3789  0.3385  0.6761
 2613SOL    HW2 8432   5.072   1.686   0.363 -1.4717  0.9194  1.1876
 2614SOL     OW 8433   5.556   2.850   0.455  0.3619 -0.5361 -0.4255
 2614SOL    HW1 8434   5.511   2.778   0.411  0.9770  0.3342 -2.6243
 2614SOL    HW2 8435   5.491   2.885   0.517 -0.6275 -1.6952 -0.7768
 2615SOL     OW 8436   5.262   2.036   2.751  0.3273 -0.4378 -0.5355
 2615SOL    HW1 8437   5.222   1.958   2.788  1.9421 -0.9406  0.2648
 2615SOL    HW2 8438   5.337   2.004   2.702  1.0536  0.5960 -0.1460
 2616SOL     OW 8439   3.759   1.979   0.107  0.0741 -0.1913  0.3675
 2616SOL    HW1 8440   3.692   2.020   0.162 -1.0991  1.1851 -1.9030
 2616SOL    HW2 8441   3.721   1.895   0.081 -0.5366  0.3053 -0.3975
 2617SOL     OW 8442   4.691   2.868   2.001  0.3474  0.6046  0.3427
 2617SOL    HW1 8443   4.640   2.939   2.038 -0.3468  0.7693 -0.9057
 2617SOL    HW2 8444   4.689   2.882   1.906 -1.4335 -2.1044 -0.1318
 2618SOL     OW 8445   6.013   1.795   1.737  0.1136  0.8198 -0.2109
 2618SOL    HW1 8446   6.071   1.859   1.780  0.2472 -0.2919  1.3483
 2618SOL    HW2 8447   5.935   1.845   1.714  0.4837  1.6985  0.3907
 2619SOL     OW 8448   6.642   2.690   3.196 -0.4043 -0.1263  0.3510
 2619SOL    HW1 8449   6.681   2.686   3.283 -1.1389  0.1174  0.7008
 2619SOL    HW2 8450   6.558   2.735   3.210  0.4367  1.9415 -0.8205
 2620SOL     OW 8451   3.824   4.024   0.801  0.5316  0.0734  0.0898
 2620SOL    HW1 8452   3.786   4.111   0.814  0.5213  0.1216 -0.2616
 2620SOL    HW2 8453   3.918   4.036   0.815  0.8019  0.5556 -1.9001
 2621SOL     OW 8454   5.296   2.977   1.806 -0.3619 -0.0310 -0.4581
 2621SOL    HW1 8455   5.386   2.966   1.835 -0.6297 -0.6929  0.1407
 2621SOL    HW2 8456   5.294   2.941   1.717 -0.2191 -0.7517 -0.1709
 2622SOL     OW 8457   3.333   3.210   0.551  0.1193 -0.1018  0.0029
 2622SOL    HW1 8458   3.275   3.134   0.555  1.2898 -1.0477 -0.4277
 2622SOL    HW2 8459   3.281   3.278   0.508 -0.0268 -1.5519 -2.2679
 2623SOL     OW 8460   3.790   1.550   3.069 -0.0687 -0.8578 -0.2338
 2623SOL    HW1 8461   3.836   1.616   3.016 -0.3685  0.2039  0.7709
 2623SOL    HW2 8462   3.708   1.536   3.021  0.2911 -1.0159 -0.8164
 2624SOL     OW 8463   3.897   4.130   2.155  0.1799 -0.2663 -0.1396
 2624SOL    HW1 8464   3.895   4.139   2.250 -0.8701 -0.2364 -0.1526
 2624SOL    HW2 8465   3.990   4.132   2.132  0.6684 -3.0170  1.1537
 2625SOL     OW 8466   4.965   1.429   2.554  0.3849  0.6455  0.5344
 2625SOL    HW1 8467   4.931   1.513   2.585 -0.6758 -0.2725  1.9685
 2625SOL    HW2 8468   4.953   1.432   2.459  0.5676  2.1881  0.5425
 2626SOL     OW 8469   4.520   1.210   1.554  0.4624  0.0890 -0.4600
 2626SOL    HW1 8470   4.476   1.267   1.492  1.8726  0.7373 -0.8940
 2626SOL    HW2 8471   4.489   1.122   1.532  1.1122  0.2725 -2.2566
 2627SOL     OW 8472   3.556   2.605   0.859  0.5868  0.5122  0.3705
 2627SOL    HW1 8473   3.606   2.539   0.812 -0.3262  0.7276 -0.9741
 2627SOL    HW2 8474   3.587   2.689   0.823 -0.3968  0.6651 -0.1660
 2628SOL     OW 8475   4.836   2.064   3.082 -0.0346  0.2891  0.0471
 2628SOL    HW1 8476   4.764   2.004   3.063 -1.6677  2.8065 -2.3754
 2628SOL    HW2 8477   4.797   2.132   3.136  0.8953  0.9432 -0.0784
 2629SOL     OW 8478   3.565   4.051   3.486 -0.1550 -0.0599 -0.8674
 2629SOL    HW1 8479   3.517   4.032   3.566  1.8756  0.0458  0.4565
 2629SOL    HW2 8480   3.566   4.146   3.480 -0.5555 -0.0743 -1.1874
 2630SOL     OW 8481   6.664   2.677   3.522 -0.5140 -0.2487  0.3345
 2630SOL    HW1 8482   6.757   2.697   3.521 -0.6700  0.7730 -2.7658
 2630SOL    HW2 8483   6.622   2.759   3.547 -0.6943  0.6199 -2.5238
 2631SOL     OW 8484   3.980   1.320   0.865  0.5597 -0.2817  0.2070
 2631SOL    HW1 8485   3.992   1.276   0.949  0.2907 -1.3606 -0.3020
 2631SOL    HW2 8486   4.043   1.278   0.806 -0.9512 -1.3171 -0.7513
 2632SOL     OW 8487   4.345   2.709   2.233  0.1270 -0.0077  0.5498
 2632SOL    HW1 8488   4.391   2.640   2.281 -0.3083 -2.5448 -2.4039
 2632SOL    HW2 8489   4.382   2.706   2.145 -1.4720  2.0457 -0.2781
 2633SOL     OW 8490   4.400   2.912   0.066 -0.1335  0.0598  0.0531
 2633SOL    HW1 8491   4.486   2.953   0.077 -0.3789  0.2815  1.2638
 2633SOL    HW2 8492   4.420   2.824   0.033  0.4618  0.6296 -1.1631
 2634SOL     OW 8493   3.633   1.747   0.667 -0.4033 -0.2650  0.3727
 2634SOL    HW1 8494   3.599   1.762   0.755 -0.2598 -1.1420  0.5918
 2634SOL    HW2 8495   3.692   1.672   0.676 -0.5101 -0.4731 -0.4897
 2635SOL     OW 8496   6.668   2.028   2.425 -0.3672 -0.2422 -0.3658
 2635SOL    HW1 8497   6.616   2.053   2.349 -1.3238 -1.5195 -0.1640
 2635SOL    HW2 8498   6.759   2.040   2.396 -0.7348  1.9523 -0.7366
 2636SOL     OW 8499   4.760   2.967   1.757  0.5538  0.4985  0.0453
 2636SOL    HW1 8500   4.848   3.002   1.749  1.0717 -0.8869 -0.6403
 2636SOL    HW2 8501   4.703   3.044   1.752  1.7146  1.4190  0.6315
 2637SOL     OW 8502   4.857   2.619   1.711 -0.2372 -0.4680 -0.1164
 2637SOL    HW1 8503   4.926   2.646   1.650  0.1420  0.0222  0.5085
 2637SOL    HW2 8504   4.862   2.683   1.782  1.0854 -2.4933  1.7296
 2638SOL     OW 8505   5.549   3.234   0.530  0.8629 -0.3423 -0.5154
 2638SOL    HW1 8506   5.572   3.320   0.495 -1.8774  0.3733 -0.8244
 2638SOL    HW2 8507   5.512   3.187   0.456 -0.0146 -0.8003  0.1830
 2639SOL     OW 8508   6.892   2.522   2.680 -0.5671 -0.1985  0.4847
 2639SOL    HW1 8509   6.874   2.462   2.608  2.8770 -3.4099  1.9370
 2639SOL    HW2 8510   6.812   2.523   2.732 -1.3985 -1.9826 -0.6708
 2640SOL     OW 8511   6.027   2.518   2.960  0.5226  0.8142  0.0048
 2640SOL    HW1 8512   5.969   2.551   3.028  1.5587  2.7578  0.0091
 2640SOL    HW2 8513   5.979   2.530   2.878 -0.4129 -0.8091  0.2792
 2641SOL     OW 8514   4.872   3.104   0.464  0.0365 -0.2064 -0.4531
 2641SOL    HW1 8515   4.812   3.103   0.538  1.5518 -2.3686  0.8832
 2641SOL    HW2 8516   4.817   3.088   0.387 -1.6144  2.3503  0.0896
 2642SOL     OW 8517   4.605   2.278   2.417 -0.2286  0.0044 -0.6974
 2642SOL    HW1 8518   4.698   2.271   2.438 -0.5203 -0.9431  0.4224
 2642SOL    HW2 8519   4.565   2.203   2.462 -1.9247  1.9211  1.2146
 2643SOL     OW 8520   4.372   2.092   1.808  0.1472  0.5104  0.2614
 2643SOL    HW1 8521   4.353   2.016   1.863 -2.2136  1.3428  0.7143
 2643SOL    HW2 8522   4.339   2.067   1.722  2.3846 -0.1726 -0.4690
 2644SOL     OW 8523   5.208   3.347   1.677 -0.5431 -0.3787  0.2713
 2644SOL    HW1 8524   5.189   3.258   1.648 -2.1788 -0.9279  2.6874
 2644SOL    HW2 8525   5.221   3.339   1.772  1.8263  1.6222  0.2029
 2645SOL     OW 8526   5.861   3.213   1.297 -0.2642 -1.0837 -0.2593
 2645SOL    HW1 8527   5.843   3.138   1.241 -0.3916 -0.0347 -1.7108
 2645SOL    HW2 8528   5.821   3.287   1.250 -1.5859 -0.3337  1.9002
 2646SOL     OW 8529   6.257   1.914   0.568 -0.3183  0.3251 -0.2160
 2646SOL    HW1 8530   6.338   1.905   0.518 -0.0688 -1.3013  0.4035
 2646SOL    HW2 8531   6.190   1.874   0.512 -0.4074  0.2859 -0.0817
 2647SOL     OW 8532   3.722   1.204   0.865  0.1308  0.2764 -0.0808
 2647SOL    HW1 8533   3.804   1.232   0.905  0.5297 -1.2944  0.3009
 2647SOL    HW2 8534   3.739   1.206   0.771  0.4981  0.3031 -0.0166
 2648SOL     OW 8535   4.517   2.305   1.548 -0.4861 -0.5120  0.1483
 2648SOL    HW1 8536   4.532   2.351   1.466 -1.6232 -2.0606 -0.9708
 2648SOL    HW2 8537   4.449   2.357   1.592  2.0876  1.9687  1.5670
 2649SOL     OW 8538   6.919   2.487   3.289  0.0589  0.4164 -0.3158
 2649SOL    HW1 8539   6.995   2.441   3.323  0.3035  1.4694  0.6470
 2649SOL    HW2 8540   6.916   2.569   3.340 -1.7406  0.3774 -0.2868
 2650SOL     OW 8541   5.576   2.352   2.217  0.0401  0.0521 -0.1039
 2650SOL    HW1 8542   5.551   2.372   2.307  0.8649 -0.4103  0.2391
 2650SOL    HW2 8543   5.540   2.424   2.165  1.0599  1.2589  0.8228
 2651SOL     OW 8544   6.210   2.562   2.270  0.2859  0.3852  0.0535
 2651SOL    HW1 8545   6.181   2.559   2.178  0.4948 -0.2732  0.0014
 2651SOL    HW2 8546   6.305   2.561   2.265  0.2992 -0.3205  0.2828
 2652SOL     OW 8547   3.102   1.860   3.342 -0.0281 -0.0884  0.1137
 2652SOL    HW1 8548   3.096   1.788   3.278  1.4651 -0.8820  0.8102
 2652SOL    HW2 8549   3.077   1.819   3.425  0.1905  0.3744  0.4054
 2653SOL     OW 8550   4.231   2.050   0.829  0.3331 -0.2959  0.0887
 2653SOL    HW1 8551   4.316   2.062   0.786  1.8585  0.3476  3.0467
 2653SOL    HW2 8552   4.184   2.131   0.812  1.0456  0.1036 -0.0246
 2654SOL     OW 8553   4.818   3.941   0.867 -0.1717 -0.2601  0.2485
 2654SOL    HW1 8554   4.898   3.992   0.854 -0.3657  0.0913  0.4165
 2654SOL    HW2 8555   4.755   4.003   0.902 -0.7826 -0.3287 -0.6781
 2655SOL     OW 8556   5.302   2.551   0.897  0.3942  0.0041  0.2194
 2655SOL    HW1 8557   5.288   2.457   0.908  0.3182  0.1031  1.0296
 2655SOL    HW2 8558   5.273   2.569   0.808  0.9588 -0.8429 -0.1543
 2656SOL     OW 8559   4.591   2.872   2.331 -0.0114  0.2617  0.1822
 2656SOL    HW1 8560   4.533   2.819   2.276  0.2760  0.2554 -0.1169
 2656SOL    HW2 8561   4.587   2.960   2.292 -0.7345  0.5443  0.8644
 2657SOL     OW 8562   3.555   2.114   0.297 -0.5012 -0.1676  0.0713
 2657SOL    HW1 8563   3.569   2.050   0.367  2.3120 -0.6385 -0.7630
 2657SOL    HW2 8564   3.581   2.197   0.336  1.0692 -0.4303 -0.3450
 2658SOL     OW 8565   6.832   2.715   0.585 -0.4438  0.1537  0.1187
 2658SOL    HW1 8566   6.891   2.781   0.621 -0.4104  0.7084 -0.9425
 2658SOL    HW2 8567   6.885   2.635   0.582 -0.4322  0.0949  1.2315
 2659SOL     OW 8568   3.761   2.623   1.575  0.0715 -0.3443 -0.8342
 2659SOL    HW1 8569   3.852   2.610   1.603 -0.4341 -3.0702 -0.1338
 2659SOL    HW2 8570   3.762   2.605   1.481  0.2082 -0.6539 -0.7732
 2660SOL     OW 8571   4.371   3.852   0.214  0.1105 -0.0250  0.0133
 2660SOL    HW1 8572   4.394   3.945   0.203 -0.9579  0.1104 -1.4917
 2660SOL    HW2 8573   4.342   3.825   0.127  0.7288 -1.8854  0.3517
 2661SOL     OW 8574   4.035   2.658   1.589 -0.0344 -0.4845  0.0392
 2661SOL    HW1 8575   4.039   2.738   1.641 -0.6028 -0.3286 -0.1498
 2661SOL    HW2 8576   4.058   2.685   1.501 -0.7373 -0.4228 -0.1326
 2662SOL     OW 8577   5.143   3.240   2.839 -0.2118  0.1699  0.0274
 2662SOL    HW1 8578   5.230   3.275   2.821 -0.6880  0.8304 -1.0980
 2662SOL    HW2 8579   5.086   3.317   2.836 -1.1957 -0.5814 -1.9371
 2663SOL     OW 8580   4.623   3.347   0.829 -0.0490 -0.4860 -1.2581
 2663SOL    HW1 8581   4.528   3.360   0.821 -0.2194  0.8254  1.6748
 2663SOL    HW2 8582   4.660   3.434   0.813  0.3792 -0.3565  0.2775
 2664SOL     OW 8583   5.786   1.197   3.303  0.1371 -0.2803 -0.4919
 2664SOL    HW1 8584   5.786   1.101   3.310  1.0186 -0.3624 -1.3133
 2664SOL    HW2 8585   5.694   1.222   3.307 -0.0897 -1.1423 -0.0524
 2665SOL     OW 8586   4.969   2.604   0.354  0.0206 -0.2072  0.6110
 2665SOL    HW1 8587   5.034   2.588   0.422 -0.3098 -0.6956  0.8182
 2665SOL    HW2 8588   4.885   2.599   0.399 -0.1802  0.0517  0.2753
 2666SOL     OW 8589   3.917   1.863   3.262  0.3076  0.3788  0.2821
 2666SOL    HW1 8590   3.944   1.819   3.181 -0.8903 -2.7690  1.4477
 2666SOL    HW2 8591   3.831   1.900   3.241 -0.1664 -0.7440  0.1879
 2667SOL     OW 8592   5.097   2.726   1.587 -0.3135 -0.6451 -0.0924
 2667SOL    HW1 8593   5.185   2.704   1.616 -0.3054 -0.4177  0.0623
 2667SOL    HW2 8594   5.111   2.780   1.508 -0.3237 -0.8774 -0.2548
 2668SOL     OW 8595   5.626   1.797   2.768  0.0117 -0.0671 -0.2147
 2668SOL    HW1 8596   5.575   1.861   2.719 -2.8389 -0.5420  1.8926
 2668SOL    HW2 8597   5.575   1.716   2.764  0.5677 -0.6062  1.9637
 2669SOL     OW 8598   4.455   1.396   2.103 -0.1985 -0.0937  0.1538
 2669SOL    HW1 8599   4.467   1.486   2.131 -1.3931 -0.1376  0.8829
 2669SOL    HW2 8600   4.476   1.396   2.010 -0.6788  1.0552  0.0342
 2670SOL     OW 8601   4.714   2.383   1.738  0.0312  0.1816  0.5047
 2670SOL    HW1 8602   4.662   2.360   1.661  0.0993 -0.8327  0.7452
 2670SOL    HW2 8603   4.751   2.468   1.718 -2.8314  1.6355  0.8585
 2671SOL     OW 8604   5.130   2.271   0.210 -0.5197 -0.7286  0.0147
 2671SOL    HW1 8605   5.103   2.234   0.126  0.3396 -0.9942 -0.1522
 2671SOL    HW2 8606   5.209   2.321   0.190 -1.2125  0.5636  0.3745
 2672SOL     OW 8607   4.606   0.622   2.629 -0.1898  0.0100 -0.2208
 2672SOL    HW1 8608   4.633   0.632   2.720 -0.0479 -0.8411 -0.1640
 2672SOL    HW2 8609   4.584   0.711   2.601  0.5003  0.3879  0.4089
 2673SOL     OW 8610   4.018   1.703   0.301 -0.0169 -0.2084 -0.4870
 2673SOL    HW1 8611   3.940   1.752   0.329  0.6774  0.4859  0.2738
 2673SOL    HW2 8612   4.075   1.769   0.262  1.3348 -0.1991  1.3735
 2674SOL     OW 8613   4.999   2.343   0.688 -0.1782  0.4010 -0.1904
 2674SOL    HW1 8614   5.032   2.270   0.741 -0.4579  0.2713 -0.1939
 2674SOL    HW2 8615   4.986   2.306   0.601  0.3977  0.6456 -0.3830
 2675SOL     OW 8616   4.993   1.340   0.348 -0.2381 -0.4053 -0.2911
 2675SOL    HW1 8617   4.904   1.321   0.318  0.1170 -1.8191 -0.5260
 2675SOL    HW2 8618   5.047   1.335   0.269  0.2197 -0.8002  0.0361
 2676SOL     OW 8619   4.490   1.290   0.696  0.2498 -0.2313  0.0189
 2676SOL    HW1 8620   4.550   1.259   0.628 -0.2602 -0.4282 -0.3550
 2676SOL    HW2 8621   4.477   1.215   0.753 -1.7394 -1.0822 -1.4268
 2677SOL     OW 8622   4.008   2.646   2.617  0.8929 -0.5042  0.0244
 2677SOL    HW1 8623   3.912   2.654   2.619  0.9241 -0.2520  1.2192
 2677SOL    HW2 8624   4.027   2.601   2.534 -0.3300 -1.6104  0.3205
 2678SOL     OW 8625   4.646   1.513   0.780 -0.0636  0.6802 -0.0761
 2678SOL    HW1 8626   4.584   1.441   0.772 -0.7090  1.1297  0.7578
 2678SOL    HW2 8627   4.660   1.522   0.875  1.5769  0.3413 -0.2513
 2679SOL     OW 8628   3.628   2.404   0.684 -0.1789 -0.1977 -0.2691
 2679SOL    HW1 8629   3.712   2.359   0.691  0.5822  1.1532 -0.3133
 2679SOL    HW2 8630   3.591   2.375   0.601  0.3647 -0.6123 -0.3679
 2680SOL     OW 8631   5.014   2.835   0.825  0.3876 -0.5847  0.2980
 2680SOL    HW1 8632   5.018   2.848   0.730 -1.5931 -1.0744  0.0940
 2680SOL    HW2 8633   5.104   2.844   0.854  0.9148  0.5418 -1.4971
 2681SOL     OW 8634   5.760   2.337   3.256  0.4535  0.2355 -0.2109
 2681SOL    HW1 8635   5.828   2.273   3.278 -0.4101 -1.3104 -1.7166
 2681SOL    HW2 8636   5.708   2.293   3.188 -2.1157  1.2879  0.9487
 2682SOL     OW 8637   5.304   1.987   0.304  0.2531 -0.1713  0.4972
 2682SOL    HW1 8638   5.310   1.928   0.229  0.3047 -0.1796  0.5078
 2682SOL    HW2 8639   5.376   2.049   0.292 -0.1816  0.2738  0.1537
 2683SOL     OW 8640   5.344   0.982   0.844  0.0993 -0.4800  0.0411
 2683SOL    HW1 8641   5.431   1.004   0.876  0.0282  0.0692 -0.1191
 2683SOL    HW2 8642   5.354   0.979   0.749 -0.1007 -0.1836  0.0075
 2684SOL     OW 8643   4.872   1.634   0.643 -0.8114 -0.1733 -0.2749
 2684SOL    HW1 8644   4.901   1.547   0.616  1.6777  0.4347  0.2042
 2684SOL    HW2 8645   4.799   1.618   0.702  0.0375 -2.0097  0.3466
 2685SOL     OW 8646   4.127   1.767   0.570 -0.0738  0.3670  0.5344
 2685SOL    HW1 8647   4.040   1.783   0.534  0.6785  0.8803 -1.1598
 2685SOL    HW2 8648   4.141   1.673   0.560 -0.3139  0.3306  0.5333
 2686SOL     OW 8649   5.832   3.311   3.257 -0.1250  0.4504 -0.0696
 2686SOL    HW1 8650   5.828   3.405   3.239 -1.5215  0.4585  0.1332
 2686SOL    HW2 8651   5.755   3.294   3.312 -0.4872 -0.9912 -0.9682
 2687SOL     OW 8652   4.454   2.635   0.009  0.2592 -0.0064 -0.1283
 2687SOL    HW1 8653   4.489   2.597  -0.071  1.7701  1.1752 -0.0601
 2687SOL    HW2 8654   4.398   2.566   0.046  2.2202 -1.8364 -0.4298
 2688SOL     OW 8655   5.646   2.032   0.605 -0.3961  0.0839  0.4679
 2688SOL    HW1 8656   5.696   1.968   0.656 -2.0913  0.7125  3.1798
 2688SOL    HW2 8657   5.692   2.115   0.621 -1.6040  0.4922  2.1482
 2689SOL     OW 8658   5.292   1.537   3.207 -0.3189 -1.1931 -0.0040
 2689SOL    HW1 8659   5.380   1.525   3.173 -0.2710  1.4449 -1.0166
 2689SOL    HW2 8660   5.239   1.473   3.158  0.5158 -0.5987 -1.7806
 2690SOL     OW 8661   3.737   1.123   0.067  0.2464 -0.0742  0.2247
 2690SOL    HW1 8662   3.682   1.100  -0.008  0.3834  1.2806 -0.3069
 2690SOL    HW2 8663   3.678   1.166   0.128  0.3104 -0.4354  0.5456
 2691SOL     OW 8664   5.223   2.927   2.085  0.0968  0.5406 -0.3139
 2691SOL    HW1 8665   5.218   2.912   1.991  0.4009  2.2367 -0.6430
 2691SOL    HW2 8666   5.133   2.920   2.115 -0.0323  0.1966 -0.7695
 2692SOL     OW 8667   5.022   4.106   0.788  0.5256 -0.0640 -0.0017
 2692SOL    HW1 8668   5.036   4.176   0.725  1.1010 -1.0972 -1.0607
 2692SOL    HW2 8669   5.091   4.042   0.769  1.0757 -0.1689  2.0392
 2693SOL     OW 8670   4.797   3.411   2.316  0.3592 -0.0106  0.4786
 2693SOL    HW1 8671   4.809   3.316   2.325 -0.2561 -0.0872  0.4982
 2693SOL    HW2 8672   4.783   3.425   2.222  0.7744  0.1020  0.4303
 2694SOL     OW 8673   5.413   2.397   0.469 -0.1764  0.0349 -0.4726
 2694SOL    HW1 8674   5.486   2.448   0.507 -0.1487 -0.6432  0.4065
 2694SOL    HW2 8675   5.430   2.400   0.375  0.8877  0.0551 -0.3027
 2695SOL     OW 8676   5.091   2.200   0.470 -0.4148  0.2180 -0.4171
 2695SOL    HW1 8677   5.105   2.240   0.384 -0.3358  1.6084  0.2066
 2695SOL    HW2 8678   5.179   2.178   0.500 -0.5341 -1.4582 -1.2033
 2696SOL     OW 8679   3.547   1.417   3.502 -0.4102  0.6476  0.2382
 2696SOL    HW1 8680   3.589   1.360   3.438 -0.6842  0.6605  0.0456
 2696SOL    HW2 8681   3.498   1.480   3.450  0.5363  1.5703  0.4332
 2697SOL     OW 8682   5.238   3.049   3.504 -0.3124  0.3225  1.2893
 2697SOL    HW1 8683   5.158   3.077   3.549 -0.3569  1.7964  0.3652
 2697SOL    HW2 8684   5.302   3.035   3.574 -0.7378  1.3404  1.9002
 2698SOL     OW 8685   5.226   2.212   2.958 -0.6056  0.2208 -0.3983
 2698SOL    HW1 8686   5.246   2.150   2.888  1.9280  0.9357 -0.3972
 2698SOL    HW2 8687   5.212   2.157   3.035  2.4433 -0.4841 -0.1926
 2699SOL     OW 8688   3.708   0.532   3.087  0.0530 -0.8066 -0.0042
 2699SOL    HW1 8689   3.713   0.519   2.992  1.3344 -3.2253  0.3230
 2699SOL    HW2 8690   3.701   0.444   3.123  1.3003 -0.0601  2.2434
 2700SOL     OW 8691   4.638   2.619   2.107 -0.3340 -0.2050 -0.3758
 2700SOL    HW1 8692   4.578   2.624   2.033 -0.4735 -0.4602 -0.2807
 2700SOL    HW2 8693   4.674   2.707   2.115 -1.3487  0.1821  0.1188
 2701SOL     OW 8694   3.741   1.213   2.018 -0.6685  0.2376 -0.3465
 2701SOL    HW1 8695   3.730   1.119   2.030 -2.7123  0.3801 -0.7102
 2701SOL    HW2 8696   3.835   1.226   2.011 -0.1718 -1.4791  1.9984
 2702SOL     OW 8697   4.113   2.576   2.362  0.6007 -1.0334  0.2373
 2702SOL    HW1 8698   4.128   2.483   2.349  0.7937 -0.8175 -1.2198
 2702SOL    HW2 8699   4.180   2.619   2.310  0.5855 -0.0633  0.9771
 2703SOL     OW 8700   4.097   1.893   0.135  0.2284 -0.2769  0.4709
 2703SOL    HW1 8701   4.142   1.971   0.167  0.7650  0.4024 -1.7603
 2703SOL    HW2 8702   4.110   1.895   0.040 -1.2363 -2.1575  0.1678
 2704SOL     OW 8703   5.515   1.733   2.212  0.3507  0.2636 -0.1675
 2704SOL    HW1 8704   5.525   1.704   2.122  0.7392 -2.1049  0.5795
 2704SOL    HW2 8705   5.596   1.706   2.256 -1.5726 -2.8415  1.8724
 2705SOL     OW 8706   3.863   0.856   1.370 -0.5440  0.0394 -0.0431
 2705SOL    HW1 8707   3.886   0.816   1.454  0.4006  0.2005 -0.2144
 2705SOL    HW2 8708   3.773   0.827   1.354 -0.4769 -0.5980  0.6662
 2706SOL     OW 8709   5.192   2.143   3.515 -0.3139  0.3082 -0.4826
 2706SOL    HW1 8710   5.170   2.050   3.506 -1.0270  0.3360  0.7905
 2706SOL    HW2 8711   5.125   2.188   3.465 -0.1249  0.1565 -0.8789
 2707SOL     OW 8712   4.629   3.882   1.526 -0.2972  0.2070 -0.0559
 2707SOL    HW1 8713   4.684   3.953   1.558  0.2540 -0.2191 -0.0432
 2707SOL    HW2 8714   4.623   3.898   1.431  1.5266 -0.8536 -0.3964
 2708SOL     OW 8715   5.755   3.307   2.412 -0.0340  0.2796  0.3011
 2708SOL    HW1 8716   5.807   3.338   2.338 -1.5510  1.6692 -0.2257
 2708SOL    HW2 8717   5.809   3.325   2.489  0.8367  0.3880 -0.3193
 2709SOL     OW 8718   6.534   1.806   2.787 -0.1823 -0.3029 -0.2760
 2709SOL    HW1 8719   6.482   1.820   2.709  0.0455 -0.6815 -0.4999
 2709SOL    HW2 8720   6.605   1.747   2.759  1.4665  1.6445 -0.4635
 2710SOL     OW 8721   4.569   1.961   2.713 -0.0408  0.0097 -0.3237
 2710SOL    HW1 8722   4.510   2.011   2.656 -0.5767 -0.4305 -0.1615
 2710SOL    HW2 8723   4.648   1.950   2.660 -0.8652 -1.1814 -1.3583
 2711SOL     OW 8724   6.315   2.180   0.590  0.3513 -0.5664  0.0791
 2711SOL    HW1 8725   6.391   2.166   0.646  0.6236 -0.6045 -0.2954
 2711SOL    HW2 8726   6.272   2.095   0.586 -1.5372  0.1256  2.8815
 2712SOL     OW 8727   3.407   1.990   0.796 -0.5409 -0.7421  0.3171
 2712SOL    HW1 8728   3.445   1.927   0.857  1.8057  0.1323 -0.1188
 2712SOL    HW2 8729   3.421   2.075   0.838  0.5908 -0.1748 -1.1014
 2713SOL     OW 8730   3.266   2.395   0.608  0.0336  0.0787 -0.8512
 2713SOL    HW1 8731   3.188   2.380   0.555 -1.8426 -2.1539  2.2065
 2713SOL    HW2 8732   3.313   2.312   0.606 -0.0480 -0.0524  0.7693
 2714SOL     OW 8733   5.152   2.496   1.925  0.4328 -0.0914 -0.2786
 2714SOL    HW1 8734   5.087   2.488   1.856 -0.3410  0.8216  0.3132
 2714SOL    HW2 8735   5.100   2.499   2.006  1.0445  2.3986  0.1024
 2715SOL     OW 8736   3.743   3.506   3.313 -0.3560  0.3241 -0.4582
 2715SOL    HW1 8737   3.736   3.601   3.314  0.4301  0.4361 -1.8835
 2715SOL    HW2 8738   3.753   3.484   3.220  0.0830 -1.1004 -0.1038
 2716SOL     OW 8739   3.640   4.097   0.292  0.1570  0.1956 -0.3027
 2716SOL    HW1 8740   3.583   4.032   0.253 -1.1433  1.6142 -0.8665
 2716SOL    HW2 8741   3.640   4.076   0.386 -1.3631  0.1778 -0.2787
 2717SOL     OW 8742   4.363   3.397   0.820 -0.2956  0.7033  0.6943
 2717SOL    HW1 8743   4.302   3.357   0.882  0.1157  2.2145  2.1255
 2717SOL    HW2 8744   4.314   3.469   0.781  0.2612  1.3485  1.1677
 2718SOL     OW 8745   4.639   2.358   2.155 -0.1844 -0.3744 -0.0503
 2718SOL    HW1 8746   4.630   2.335   2.247  1.2785 -0.3425  0.1182
 2718SOL    HW2 8747   4.653   2.453   2.155  1.7197 -0.6254 -0.1352
 2719SOL     OW 8748   4.617   4.318   1.544 -0.4698  0.1950 -0.1417
 2719SOL    HW1 8749   4.621   4.392   1.604  0.0645  0.5517 -0.5999
 2719SOL    HW2 8750   4.532   4.277   1.561 -1.1503  1.4119 -0.4448
 2720SOL     OW 8751   5.400   1.890   2.570 -0.0837 -0.0185 -0.2012
 2720SOL    HW1 8752   5.438   1.941   2.499  0.0566  0.4290  0.1909
 2720SOL    HW2 8753   5.356   1.817   2.526  3.6424 -2.3027 -0.6022
 2721SOL     OW 8754   4.531   4.477   2.866 -0.2467  0.2620 -0.2511
 2721SOL    HW1 8755   4.470   4.550   2.855  0.7397  0.9935 -1.0862
 2721SOL    HW2 8756   4.612   4.507   2.823  0.3975 -1.0481  0.0054
 2722SOL     OW 8757   4.904   3.224   1.970  0.5008 -0.7167 -0.6287
 2722SOL    HW1 8758   4.941   3.187   1.890 -0.0886 -2.2366 -0.2245
 2722SOL    HW2 8759   4.913   3.155   2.036 -4.0401 -1.7540 -0.7693
 2723SOL     OW 8760   4.143   2.734   0.374 -0.1247 -0.3502 -0.5549
 2723SOL    HW1 8761   4.100   2.699   0.452  3.4276 -1.1704  1.2573
 2723SOL    HW2 8762   4.225   2.686   0.369  1.3538  2.1557 -2.7711
 2724SOL     OW 8763   4.332   3.236   2.251  0.0833 -0.1831  0.5247
 2724SOL    HW1 8764   4.381   3.318   2.250 -0.5465  0.1949  0.8471
 2724SOL    HW2 8765   4.240   3.262   2.253 -0.1258 -0.8944  0.3960
 2725SOL     OW 8766   5.863   2.307   0.267 -0.1177  0.6770  0.3701
 2725SOL    HW1 8767   5.828   2.386   0.227  0.9850 -0.0579 -2.2764
 2725SOL    HW2 8768   5.957   2.324   0.276  0.4528 -0.8588 -1.8694
 2726SOL     OW 8769   5.197   3.896   1.096  0.1307  0.1822 -0.7311
 2726SOL    HW1 8770   5.207   3.988   1.119  2.4269 -0.1331 -0.2120
 2726SOL    HW2 8771   5.181   3.852   1.180 -1.4405  0.1234 -1.0299
 2727SOL     OW 8772   4.614   3.025   2.822  0.0533  0.0590 -0.2101
 2727SOL    HW1 8773   4.554   3.056   2.754  0.3140 -0.4143 -0.6673
 2727SOL    HW2 8774   4.664   3.103   2.848 -0.3023  0.3183 -0.2915
 2728SOL     OW 8775   4.880   2.230   2.839  0.2588 -0.1360  0.4490
 2728SOL    HW1 8776   4.868   2.166   2.909 -0.6289 -0.0744  0.3693
 2728SOL    HW2 8777   4.954   2.197   2.788  1.5932  0.3558  1.9982
 2729SOL     OW 8778   5.960   2.077   0.891  0.6281 -0.4007 -0.2581
 2729SOL    HW1 8779   5.982   2.121   0.973 -0.8838  0.3795 -0.2412
 2729SOL    HW2 8780   5.869   2.103   0.873  0.4275 -1.7564 -1.3976
 2730SOL     OW 8781   5.437   2.999   2.853  0.5340  0.0606 -0.2572
 2730SOL    HW1 8782   5.408   2.916   2.817 -0.4634  0.5820 -0.6838
 2730SOL    HW2 8783   5.489   3.039   2.783 -0.6799  0.6879 -0.8164
 2731SOL     OW 8784   4.361   2.771   1.539 -0.4775  0.2524 -0.3162
 2731SOL    HW1 8785   4.381   2.761   1.446  0.7394  0.3411 -0.0872
 2731SOL    HW2 8786   4.291   2.837   1.542  0.0814  0.9104 -1.1254
 2732SOL     OW 8787   5.919   1.617   3.433  0.0683  0.1904  0.1580
 2732SOL    HW1 8788   6.012   1.599   3.419  0.2148  1.5667 -0.8041
 2732SOL    HW2 8789   5.901   1.693   3.377 -1.2048  1.0562  1.6662
 2733SOL     OW 8790   4.068   3.197   1.689  0.1018  0.2324  0.4587
 2733SOL    HW1 8791   4.008   3.269   1.667 -0.2400 -0.3279 -0.5183
 2733SOL    HW2 8792   4.047   3.175   1.779 -2.7358 -1.3901 -0.4875
 2734SOL     OW 8793   3.463   2.255   0.866  0.2880 -0.0856 -0.4080
 2734SOL    HW1 8794   3.503   2.318   0.806 -0.5803  0.5672 -0.3287
 2734SOL    HW2 8795   3.380   2.295   0.891 -0.4285 -1.4142 -0.5800
 2735SOL     OW 8796   5.922   4.412   1.207 -0.0420  0.0450  0.2405
 2735SOL    HW1 8797   5.932   4.483   1.271  1.1293 -0.4158  0.5920
 2735SOL    HW2 8798   6.011   4.388   1.183 -0.4380 -0.8433 -0.4106
 2736SOL     OW 8799   7.066   2.153   3.086  0.3330 -0.4657 -0.1828
 2736SOL    HW1 8800   6.978   2.189   3.100  0.3543 -1.0795  1.9665
 2736SOL    HW2 8801   7.121   2.230   3.073 -0.2864  0.0191 -0.0235
 2737SOL     OW 8802   3.377   0.996   0.213 -0.0292 -0.6218  0.1445
 2737SOL    HW1 8803   3.338   1.062   0.156 -0.0380 -0.0683  0.7780
 2737SOL    HW2 8804   3.450   0.959   0.162 -0.8339 -1.0627 -0.7172
 2738SOL     OW 8805   4.692   2.899   3.097  0.1368  0.4415 -0.3481
 2738SOL    HW1 8806   4.631   2.929   3.029 -1.7036  0.4454  1.2484
 2738SOL    HW2 8807   4.736   2.824   3.058  0.6356  1.6518 -2.2823
 2739SOL     OW 8808   4.562   2.774   0.344 -0.0977 -0.4499  1.0167
 2739SOL    HW1 8809   4.641   2.728   0.372  1.5089  1.0023 -0.7639
 2739SOL    HW2 8810   4.589   2.866   0.340 -1.4809 -0.0652 -0.8624
 2740SOL     OW 8811   5.173   3.268   3.116  0.2683 -0.0976  0.0495
 2740SOL    HW1 8812   5.196   3.190   3.065  0.6759  0.3000 -0.3935
 2740SOL    HW2 8813   5.083   3.287   3.092  0.3528 -0.1059 -0.2876
 2741SOL     OW 8814   4.272   3.089   1.550 -0.3333 -0.2160  0.1145
 2741SOL    HW1 8815   4.199   3.131   1.595 -0.1225  0.3370 -0.0425
 2741SOL    HW2 8816   4.268   3.122   1.461  0.0149 -0.2964  0.0642
 2742SOL     OW 8817   3.856   2.711   0.610  0.4573 -0.2430 -0.1717
 2742SOL    HW1 8818   3.887   2.762   0.685 -0.2573 -2.4515  1.7547
 2742SOL    HW2 8819   3.930   2.655   0.585  0.6290  0.3446 -1.0230
 2743SOL     OW 8820   6.171   2.319   3.252  0.2375 -0.6248 -0.3448
 2743SOL    HW1 8821   6.214   2.243   3.292  2.2402 -0.7551 -2.5550
 2743SOL    HW2 8822   6.151   2.291   3.162 -1.1669  0.7174 -0.4916
 2744SOL     OW 8823   5.954   3.112   0.224 -0.2140 -0.1036  0.1276
 2744SOL    HW1 8824   6.015   3.083   0.157  0.4007  2.6241 -0.5970
 2744SOL    HW2 8825   5.869   3.077   0.195  0.3651 -0.6891 -0.9338
 2745SOL     OW 8826   4.270   1.872   3.205 -0.1549 -0.1672  0.5802
 2745SOL    HW1 8827   4.244   1.920   3.283 -0.3270  0.3489  0.2089
 2745SOL    HW2 8828   4.188   1.839   3.168 -0.0617 -0.5295  0.6845
 2746SOL     OW 8829   4.919   1.699   1.925  0.2876  0.0571 -0.0984
 2746SOL    HW1 8830   4.909   1.784   1.969 -0.3741 -0.6816  1.2714
 2746SOL    HW2 8831   4.955   1.720   1.839 -0.0323  1.7354  0.1417
 2747SOL     OW 8832   3.337   1.975   3.469  0.3255 -0.2002  0.0026
 2747SOL    HW1 8833   3.388   1.945   3.394  1.1456 -1.2684  0.9408
 2747SOL    HW2 8834   3.252   1.932   3.458  0.4321 -0.3300 -0.3387
 2748SOL     OW 8835   4.503   2.517   3.293 -0.3311 -0.3835  0.7734
 2748SOL    HW1 8836   4.464   2.433   3.268 -0.8284  0.3077 -0.9888
 2748SOL    HW2 8837   4.578   2.527   3.234 -0.0247  0.2229  1.2497
 2749SOL     OW 8838   6.909   2.695   3.075  0.0892 -0.0004  0.1793
 2749SOL    HW1 8839   6.828   2.659   3.112  1.7553 -2.5080  1.6855
 2749SOL    HW2 8840   6.934   2.764   3.137  0.3979 -0.9857  1.2014
 2750SOL     OW 8841   4.865   2.313   2.482 -0.3849 -0.1577 -0.5148
 2750SOL    HW1 8842   4.902   2.285   2.398  0.1280  0.7726 -0.6096
 2750SOL    HW2 8843   4.937   2.303   2.545 -0.8539 -1.1334 -0.1152
 2751SOL     OW 8844   5.029   3.337   0.509 -0.7001 -0.4072  0.4060
 2751SOL    HW1 8845   5.117   3.311   0.536 -0.2937  0.1330 -0.3694
 2751SOL    HW2 8846   4.977   3.258   0.521  0.0262 -0.9209  0.2662
 2752SOL     OW 8847   3.299   3.366   0.270  0.7304  0.2526  0.0799
 2752SOL    HW1 8848   3.386   3.377   0.311  0.2973  1.6831  0.6990
 2752SOL    HW2 8849   3.315   3.311   0.194  1.9544 -0.6268  0.9299
 2753SOL     OW 8850   5.040   3.893   1.698  0.2300 -0.1739 -0.0938
 2753SOL    HW1 8851   4.998   3.947   1.631  0.1283 -0.8942 -0.6151
 2753SOL    HW2 8852   4.967   3.853   1.745  0.3038 -1.6687 -1.1956
 2754SOL     OW 8853   3.967   4.921   2.693  0.3185  0.0956  0.1118
 2754SOL    HW1 8854   4.045   4.933   2.638 -0.1059  1.0316 -0.3117
 2754SOL    HW2 8855   3.981   4.978   2.768  0.7002 -0.8547  0.7714
 2755SOL     OW 8856   4.951   1.638   3.183 -0.8930 -0.4560  0.1239
 2755SOL    HW1 8857   4.858   1.657   3.191 -0.9296 -0.5519 -0.0498
 2755SOL    HW2 8858   4.966   1.631   3.089 -0.5098  0.5090  0.1095
 2756SOL     OW 8859   4.070   1.803   0.836 -0.3452 -0.6809  0.2323
 2756SOL    HW1 8860   4.153   1.849   0.849 -0.2668 -1.1566  1.5918
 2756SOL    HW2 8861   4.048   1.820   0.744 -0.1724  1.7902  0.5685
 2757SOL     OW 8862   5.389   2.172   1.648 -0.0246 -0.2680 -0.3028
 2757SOL    HW1 8863   5.473   2.205   1.614  1.3202 -3.0499  0.0002
 2757SOL    HW2 8864   5.323   2.211   1.590  1.3866  2.2347 -0.3855
 2758SOL     OW 8865   5.772   3.435   1.178 -0.0804 -0.1952 -0.2138
 2758SOL    HW1 8866   5.786   3.511   1.121 -1.6785  0.9519  0.8505
 2758SOL    HW2 8867   5.678   3.434   1.193  0.1470 -1.3118  1.2725
 2759SOL     OW 8868   5.842   1.820   0.689  0.1147 -0.0325 -0.3010
 2759SOL    HW1 8869   5.773   1.767   0.729 -2.7929  3.4354 -0.2845
 2759SOL    HW2 8870   5.914   1.817   0.752 -0.3498 -2.7945  0.2569
 2760SOL     OW 8871   4.749   4.480   0.815 -0.0683  0.3152  0.7679
 2760SOL    HW1 8872   4.811   4.534   0.766  0.1535  0.4139  1.1506
 2760SOL    HW2 8873   4.663   4.518   0.796 -0.1643 -0.5259 -0.7050
 2761SOL     OW 8874   3.898   2.014   0.806  0.0762 -0.0865 -0.8462
 2761SOL    HW1 8875   3.954   1.938   0.824  0.6985  0.7611  1.0717
 2761SOL    HW2 8876   3.948   2.089   0.838 -1.7680  0.8037  0.1543
 2762SOL     OW 8877   5.764   2.526   0.140 -0.2323 -0.7147 -0.1343
 2762SOL    HW1 8878   5.682   2.555   0.181 -0.4735 -2.8297  1.0085
 2762SOL    HW2 8879   5.737   2.482   0.060  0.0740  1.2564 -1.3997
 2763SOL     OW 8880   4.798   4.090   1.591  0.3810  0.0480 -0.0557
 2763SOL    HW1 8881   4.754   4.173   1.575  1.1784  0.5532  0.3438
 2763SOL    HW2 8882   4.776   4.068   1.682 -1.2331 -1.0566 -0.6560
 2764SOL     OW 8883   3.451   3.937   0.169  0.5144  0.5471 -0.6678
 2764SOL    HW1 8884   3.384   4.000   0.196  1.1784  0.8227  0.3850
 2764SOL    HW2 8885   3.415   3.851   0.193  0.2224  0.6310 -0.8041
 2765SOL     OW 8886   4.241   3.988   1.767 -0.3573  0.0735 -0.4313
 2765SOL    HW1 8887   4.178   4.029   1.826 -1.0528  0.5583 -1.4708
 2765SOL    HW2 8888   4.187   3.942   1.702  0.3687 -0.0990 -0.9351
 2766SOL     OW 8889   4.653   2.653   0.797 -0.2561  0.5755 -0.1253
 2766SOL    HW1 8890   4.735   2.610   0.819  1.0170  1.6619 -2.4299
 2766SOL    HW2 8891   4.665   2.744   0.822 -1.4527  0.4172  1.1264
 2767SOL     OW 8892   3.621   3.857   0.836 -0.2267  0.2034  0.1780
 2767SOL    HW1 8893   3.549   3.921   0.836 -1.8216 -1.5144  0.6578
 2767SOL    HW2 8894   3.700   3.911   0.845 -1.0630  2.4474 -3.6779
 2768SOL     OW 8895   4.552   2.385   0.826  0.1122  0.6680 -0.1274
 2768SOL    HW1 8896   4.632   2.345   0.859 -0.0924  0.1788 -0.2076
 2768SOL    HW2 8897   4.571   2.478   0.822 -0.4518  1.0437  3.1917
 2769SOL     OW 8898   4.453   2.525   2.423  0.0549  0.3080 -0.1885
 2769SOL    HW1 8899   4.511   2.449   2.424  0.1617  0.3819 -0.6776
 2769SOL    HW2 8900   4.440   2.546   2.516  1.0382  0.4703 -0.0790
 2770SOL     OW 8901   4.885   2.531   0.867  0.0501 -0.4893 -0.6985
 2770SOL    HW1 8902   4.939   2.461   0.830  1.4313  0.5253 -0.7098
 2770SOL    HW2 8903   4.925   2.611   0.834 -0.5393  0.3472  0.5428
 2771SOL     OW 8904   7.039   2.189   2.610 -0.3037  0.4179 -0.7115
 2771SOL    HW1 8905   7.057   2.172   2.702 -0.5164  0.6350 -0.6314
 2771SOL    HW2 8906   7.121   2.166   2.565 -0.5831 -0.8868 -0.6124
 2772SOL     OW 8907   2.992   2.146   0.101  0.3318 -0.2272  0.1059
 2772SOL    HW1 8908   2.971   2.120   0.011  0.2988  0.6302 -0.1442
 2772SOL    HW2 8909   3.022   2.066   0.143  1.8184 -0.3536 -1.1133
 2773SOL     OW 8910   4.485   1.669   0.609  0.2289 -0.8052  0.3443
 2773SOL    HW1 8911   4.516   1.737   0.549 -0.9225 -1.8143 -1.4857
 2773SOL    HW2 8912   4.564   1.640   0.654  1.5661 -1.3670 -2.1366
 2774SOL     OW 8913   4.134   0.827   0.652  0.5954  0.4771  0.7193
 2774SOL    HW1 8914   4.192   0.754   0.630 -1.5489 -1.8733  2.4067
 2774SOL    HW2 8915   4.142   0.837   0.746 -0.5312  1.1983  0.7526
 2775SOL     OW 8916   3.621   2.900   2.185 -0.3126  0.0765  0.0119
 2775SOL    HW1 8917   3.658   2.822   2.144 -0.9628 -0.6856  0.8132
 2775SOL    HW2 8918   3.539   2.916   2.138 -0.4847 -0.1084  0.2408
 2776SOL     OW 8919   5.323   2.880   0.600 -0.7163 -0.1667  0.1754
 2776SOL    HW1 8920   5.322   2.860   0.694 -2.5820 -0.0815  0.2004
 2776SOL    HW2 8921   5.250   2.940   0.587  0.7492  1.4714 -1.0250
 2777SOL     OW 8922   5.402   3.326   2.858 -0.1072  0.3447 -0.0826
 2777SOL    HW1 8923   5.470   3.309   2.794 -0.7620 -3.0826 -0.0676
 2777SOL    HW2 8924   5.441   3.302   2.942 -1.4379 -2.5951 -0.1723
 2778SOL     OW 8925   4.788   1.843   3.433  0.6876 -0.0425  0.3748
 2778SOL    HW1 8926   4.788   1.769   3.492  0.8298  0.4604  1.0133
 2778SOL    HW2 8927   4.770   1.919   3.488 -1.1686  0.2113 -0.5160
 2779SOL     OW 8928   6.104   3.043   2.718  0.6965 -0.0337  0.1377
 2779SOL    HW1 8929   6.083   3.004   2.633 -0.1817 -0.3973  0.5113
 2779SOL    HW2 8930   6.108   2.969   2.778 -1.6827  0.4299  0.9971
 2780SOL     OW 8931   5.231   1.858   0.015 -0.1109 -0.4979 -0.3460
 2780SOL    HW1 8932   5.207   1.842  -0.077 -0.9216  0.2497 -0.2729
 2780SOL    HW2 8933   5.224   1.772   0.056  1.3248 -1.0678 -1.1942
 2781SOL     OW 8934   3.466   2.359   2.491 -0.3504 -0.1523  0.5397
 2781SOL    HW1 8935   3.553   2.345   2.528 -0.3718 -2.5826 -0.1677
 2781SOL    HW2 8936   3.481   2.414   2.414  0.1679  1.6657  1.8706
 2782SOL     OW 8937   4.815   2.865   2.729 -0.2360  0.4877  0.6767
 2782SOL    HW1 8938   4.739   2.922   2.735 -0.1391  0.7865 -0.6531
 2782SOL    HW2 8939   4.888   2.918   2.764 -0.3580  0.7560  0.5247
 2783SOL     OW 8940   3.850   3.791   1.795  0.1715  0.6806 -0.1236
 2783SOL    HW1 8941   3.842   3.741   1.713 -1.9399  1.8769 -0.7262
 2783SOL    HW2 8942   3.787   3.862   1.785  1.8772  2.5202  1.3967
 2784SOL     OW 8943   4.185   1.484   2.392  0.5803  0.3725  0.1330
 2784SOL    HW1 8944   4.124   1.558   2.397  0.2199  0.0478  0.6453
 2784SOL    HW2 8945   4.267   1.518   2.427  1.6594  1.7391 -3.3035
 2785SOL     OW 8946   6.269   1.524   2.127 -0.0689  0.2935  0.4239
 2785SOL    HW1 8947   6.270   1.578   2.206 -1.5694 -0.2886  0.8833
 2785SOL    HW2 8948   6.200   1.562   2.072  1.7443  1.4250 -1.1952
 2786SOL     OW 8949   4.938   3.730   2.874 -0.3906 -0.1481 -0.5943
 2786SOL    HW1 8950   4.992   3.807   2.860 -1.3968  1.1769  2.1213
 2786SOL    HW2 8951   4.848   3.763   2.877 -0.7418 -1.0625  2.1298
 2787SOL     OW 8952   3.921   3.806   3.050  0.2051  0.1473  0.3715
 2787SOL    HW1 8953   3.895   3.864   2.979 -0.7336 -1.2481 -0.4545
 2787SOL    HW2 8954   3.860   3.733   3.046  0.9526 -0.6020  1.7959
 2788SOL     OW 8955   4.394   2.283   3.229 -0.6330  0.2535  0.2376
 2788SOL    HW1 8956   4.304   2.275   3.196 -0.4657  2.4438 -0.9255
 2788SOL    HW2 8957   4.447   2.241   3.162 -0.4391  3.3228 -1.7456
 2789SOL     OW 8958   3.623   4.245   0.825  0.4126 -0.0700  0.6408
 2789SOL    HW1 8959   3.593   4.311   0.888  1.1672  0.4177  0.4972
 2789SOL    HW2 8960   3.544   4.194   0.805 -0.1295  0.6365  0.9356
 2790SOL     OW 8961   4.100   1.311   2.907 -0.2660  0.1910 -0.2036
 2790SOL    HW1 8962   4.058   1.342   2.987  1.4178 -3.4991  2.3973
 2790SOL    HW2 8963   4.049   1.234   2.881 -0.7901  1.3226 -2.8050
 2791SOL     OW 8964   5.743   2.295   0.535 -0.1336  0.0728 -0.8969
 2791SOL    HW1 8965   5.772   2.384   0.552 -1.3498  0.4885 -0.8671
 2791SOL    HW2 8966   5.747   2.286   0.439 -0.4722  0.3403 -0.9402
 2792SOL     OW 8967   4.480   3.160   3.335  0.0495  0.2071  0.1513
 2792SOL    HW1 8968   4.437   3.210   3.404 -0.4658  1.4593 -1.0074
 2792SOL    HW2 8969   4.465   3.069   3.357 -1.8212  0.5959  0.6508
 2793SOL     OW 8970   6.343   4.298   3.149 -0.2528  0.2338 -0.4496
 2793SOL    HW1 8971   6.356   4.225   3.088 -0.8600 -0.1023 -0.1849
 2793SOL    HW2 8972   6.323   4.257   3.233  0.2774  0.7020 -0.0867
 2794SOL     OW 8973   6.246   2.605   3.224 -0.4505 -0.4709  0.0565
 2794SOL    HW1 8974   6.316   2.660   3.258  0.4293  0.1451 -2.5007
 2794SOL    HW2 8975   6.266   2.518   3.258  1.2972 -0.2031 -0.1656
 2795SOL     OW 8976   4.523   1.713   1.870  0.1145  0.1630 -1.0076
 2795SOL    HW1 8977   4.598   1.725   1.812 -0.0234  2.1913 -0.8352
 2795SOL    HW2 8978   4.559   1.674   1.949  0.7683 -0.0822 -1.4214
 2796SOL     OW 8979   3.795   3.009   3.084  0.5434  0.6269 -0.5348
 2796SOL    HW1 8980   3.771   3.049   3.000  1.3156 -0.8067 -1.4753
 2796SOL    HW2 8981   3.888   3.029   3.094  0.2526  1.5904  0.4710
 2797SOL     OW 8982   4.212   3.682   2.856 -0.1121  0.3993  0.3518
 2797SOL    HW1 8983   4.210   3.775   2.833 -0.4247  0.5883  1.1330
 2797SOL    HW2 8984   4.220   3.681   2.951 -1.3032 -0.3741  0.4569
 2798SOL     OW 8985   4.819   3.414   2.644  0.3213 -0.5001  0.6597
 2798SOL    HW1 8986   4.866   3.370   2.574  0.1137 -0.4978  0.5189
 2798SOL    HW2 8987   4.790   3.497   2.605  0.1537 -0.5255  0.7274
 2799SOL     OW 8988   6.015   1.295   2.300  0.2875  0.1913 -0.5098
 2799SOL    HW1 8989   5.927   1.313   2.334  0.2872 -0.4584 -0.1652
 2799SOL    HW2 8990   6.063   1.260   2.375  0.2786 -1.2742 -1.1642
 2800SOL     OW 8991   4.331   1.875   2.827  0.1691 -0.0055  0.5260
 2800SOL    HW1 8992   4.283   1.819   2.765  0.0347 -0.7508  1.2827
 2800SOL    HW2 8993   4.394   1.922   2.772 -0.5226 -0.0101 -0.2919
 2801SOL     OW 8994   4.330   2.877   2.485  0.0577  0.8084  0.1176
 2801SOL    HW1 8995   4.375   2.839   2.409  1.5152  0.8385  0.9171
 2801SOL    HW2 8996   4.382   2.954   2.507  3.1310 -2.0220  4.3886
 2802SOL     OW 8997   5.539   3.431   1.838  0.3970  0.0168  0.0436
 2802SOL    HW1 8998   5.447   3.403   1.845  0.3651 -0.1291 -0.8324
 2802SOL    HW2 8999   5.588   3.350   1.827  0.5136  0.1549 -0.5217
 2803SOL     OW 9000   5.112   4.416   1.176  0.6598 -0.1514 -0.0182
 2803SOL    HW1 9001   5.017   4.426   1.173  0.4313 -1.9981  0.1860
 2803SOL    HW2 9002   5.145   4.502   1.149 -1.0495 -0.0207 -2.0270
 2804SOL     OW 9003   4.841   2.754   2.327 -0.3718 -0.1676  0.6916
 2804SOL    HW1 9004   4.761   2.773   2.377  0.0114  0.5117  1.0592
 2804SOL    HW2 9005   4.911   2.796   2.377 -0.0003  0.7082 -0.5230
 2805SOL     OW 9006   5.826   1.731   2.271  0.0199  0.3081  0.4392
 2805SOL    HW1 9007   5.895   1.754   2.333 -0.2468  0.1116  0.8104
 2805SOL    HW2 9008   5.852   1.644   2.239  1.9809  1.7472 -2.2876
 2806SOL     OW 9009   4.574   3.683   1.888  0.7019  0.2999 -0.1101
 2806SOL    HW1 9010   4.520   3.680   1.809  1.8564  0.1037 -0.9285
 2806SOL    HW2 9011   4.563   3.597   1.928 -1.1417  0.9413  0.8444
 2807SOL     OW 9012   4.466   1.452   2.973  0.2668  0.2898 -0.1377
 2807SOL    HW1 9013   4.437   1.412   3.054 -3.0288 -0.3207 -1.4196
 2807SOL    HW2 9014   4.449   1.546   2.985 -1.8841  0.0174 -0.6083
 2808SOL     OW 9015   5.863   2.896   2.909 -0.2798 -0.1616 -0.9048
 2808SOL    HW1 9016   5.930   2.860   2.966  0.4642 -0.8075 -2.1351
 2808SOL    HW2 9017   5.831   2.974   2.955  1.7909  0.5636 -0.5859
 2809SOL     OW 9018   6.344   1.928   1.734  0.2796  0.1497 -0.4160
 2809SOL    HW1 9019   6.431   1.957   1.706  0.4462 -0.7739 -0.9200
 2809SOL    HW2 9020   6.358   1.837   1.762 -0.3506  0.2940  0.3831
 2810SOL     OW 9021   5.391   2.041   1.923 -0.8199 -0.1571  0.1292
 2810SOL    HW1 9022   5.469   2.024   1.976  0.1318 -1.8830 -1.6961
 2810SOL    HW2 9023   5.421   2.100   1.854 -1.1196 -0.7703 -0.5417
 2811SOL     OW 9024   4.177   2.181   2.501 -0.0384 -0.3029  0.5483
 2811SOL    HW1 9025   4.171   2.222   2.588 -1.9843  1.0871 -0.1861
 2811SOL    HW2 9026   4.190   2.254   2.441 -1.1575 -1.0020 -0.5706
 2812SOL     OW 9027   4.092   2.591   0.919 -0.2212 -0.5158 -0.1901
 2812SOL    HW1 9028   4.153   2.658   0.890  0.5282 -1.9788 -2.2035
 2812SOL    HW2 9029   4.005   2.627   0.900  0.1909 -0.3767 -1.9323
 2813SOL     OW 9030   4.414   2.058   2.506  0.2219  0.4937  0.3546
 2813SOL    HW1 9031   4.338   2.114   2.525 -0.0776 -0.3961  2.0531
 2813SOL    HW2 9032   4.395   2.021   2.420 -0.3344  1.7578 -0.0979
 2814SOL     OW 9033   5.359   2.865   1.528 -0.3303 -0.6145  0.5049
 2814SOL    HW1 9034   5.353   2.777   1.565  2.2442 -1.5885 -1.1561
 2814SOL    HW2 9035   5.452   2.881   1.519 -0.7431  0.5191 -3.1438
 2815SOL     OW 9036   5.162   5.377   0.730  0.7479  0.2808 -0.0915
 2815SOL    HW1 9037   5.186   5.448   0.670 -1.3346  1.0155 -0.1308
 2815SOL    HW2 9038   5.080   5.406   0.770  1.1431 -0.9880  1.8096
 2816SOL     OW 9039   3.485   2.281   2.783  0.4363  0.2055 -0.8626
 2816SOL    HW1 9040   3.557   2.328   2.824  2.2798 -0.7285 -2.8103
 2816SOL    HW2 9041   3.454   2.341   2.714 -1.0601  0.8135  0.2846
 2817SOL     OW 9042   4.564   3.681   2.722 -0.1084  0.1045  0.2596
 2817SOL    HW1 9043   4.488   3.728   2.687  0.0350  0.8485  0.9279
 2817SOL    HW2 9044   4.607   3.644   2.644 -0.2946  0.9779 -0.2745
 2818SOL     OW 9045   5.930   3.915   3.193 -0.1152 -0.3216 -0.0011
 2818SOL    HW1 9046   5.939   3.962   3.276  2.2839  1.2813 -1.0685
 2818SOL    HW2 9047   5.993   3.957   3.135 -0.9621 -2.1031 -2.3454
 2819SOL     OW 9048   5.388   2.135   0.556  0.3138  0.5973 -0.0110
 2819SOL    HW1 9049   5.460   2.072   0.547 -1.7290 -2.1194  1.1716
 2819SOL    HW2 9050   5.424   2.218   0.524  4.1310 -0.4483  1.0745
 2820SOL     OW 9051   4.209   2.848   2.769 -0.0263  0.0917 -0.4247
 2820SOL    HW1 9052   4.132   2.791   2.761  1.0772 -1.7299  0.9012
 2820SOL    HW2 9053   4.243   2.856   2.680 -1.8500  1.1293 -1.0658
 2821SOL     OW 9054   5.095   4.663   1.813  0.1812  0.0052 -0.3238
 2821SOL    HW1 9055   5.150   4.705   1.880  0.3328  0.5315 -0.7701
 2821SOL    HW2 9056   5.066   4.582   1.854  0.0444  0.4504  0.4958
 2822SOL     OW 9057   3.268   0.847   2.847 -0.4548  0.2221 -0.0962
 2822SOL    HW1 9058   3.193   0.796   2.816 -1.6041  1.9478 -0.3047
 2822SOL    HW2 9059   3.294   0.806   2.929 -2.0751 -0.0062  0.3195
 2823SOL     OW 9060   5.627   2.958   1.434  0.0785 -0.4268 -0.2027
 2823SOL    HW1 9061   5.662   3.021   1.498  0.3331 -0.4347 -0.3345
 2823SOL    HW2 9062   5.702   2.934   1.380 -0.2576  0.0407 -0.8920
 2824SOL     OW 9063   4.932   2.489   2.125  0.1145  0.6309  0.4086
 2824SOL    HW1 9064   4.867   2.549   2.162  0.8385  1.6418  0.0697
 2824SOL    HW2 9065   4.895   2.401   2.141 -0.3921  1.1035  1.9808
 2825SOL     OW 9066   6.130   2.201   2.299 -0.1816  0.0958  0.6066
 2825SOL    HW1 9067   6.064   2.267   2.318 -0.4643  0.2995 -1.0018
 2825SOL    HW2 9068   6.192   2.244   2.240  0.6525 -0.5172  1.0084
 2826SOL     OW 9069   4.957   2.844   0.206  0.0108 -0.0288  0.0538
 2826SOL    HW1 9070   4.971   2.781   0.276 -0.1006 -0.0882  0.0234
 2826SOL    HW2 9071   4.895   2.801   0.147  1.3045 -0.6431 -0.9156
 2827SOL     OW 9072   5.164   2.572   0.127 -0.0240  0.7925 -0.5097
 2827SOL    HW1 9073   5.124   2.566   0.214 -2.0977  0.1480 -1.4333
 2827SOL    HW2 9074   5.230   2.641   0.136 -0.1966  0.7630  1.5496
 2828SOL     OW 9075   4.033   1.938   2.480 -0.2100 -0.1930 -0.7787
 2828SOL    HW1 9076   3.946   1.978   2.477  0.0113  0.4432  0.4838
 2828SOL    HW2 9077   4.093   2.011   2.494  0.3520 -0.8052  0.1227
 2829SOL     OW 9078   5.140   1.285   2.201 -0.4099  0.0951 -0.0749
 2829SOL    HW1 9079   5.180   1.249   2.121 -0.5895 -0.2427 -0.0153
 2829SOL    HW2 9080   5.210   1.280   2.266 -0.5455 -0.5024  0.0311
 2830SOL     OW 9081   4.628   3.276   0.306  0.1450  0.2933  0.3444
 2830SOL    HW1 9082   4.613   3.340   0.376  1.1320  0.8682  0.0548
 2830SOL    HW2 9083   4.673   3.326   0.238 -0.7492 -0.2746 -0.6874
 2831SOL     OW 9084   4.138   2.879   3.152 -0.4961 -0.2753  0.4824
 2831SOL    HW1 9085   4.138   2.972   3.174  0.3424 -0.1408 -0.0518
 2831SOL    HW2 9086   4.192   2.838   3.219 -2.3353 -0.6761  1.8034
 2832SOL     OW 9087   4.394   2.649   1.940 -0.3934 -0.6460 -0.2865
 2832SOL    HW1 9088   4.395   2.575   1.879  0.3751 -0.4097 -0.5692
 2832SOL    HW2 9089   4.367   2.724   1.887 -0.5694 -0.6035 -0.1398
 2833SOL     OW 9090   4.290   1.317   2.711  0.0656  0.2647  0.0704
 2833SOL    HW1 9091   4.343   1.395   2.728  0.2973 -0.0303  0.7411
 2833SOL    HW2 9092   4.231   1.311   2.786  0.3858 -0.4778  0.2751
 2834SOL     OW 9093   5.659   2.449   2.769 -0.4792  0.5611  0.2634
 2834SOL    HW1 9094   5.745   2.485   2.748 -0.4886  1.4704  1.6569
 2834SOL    HW2 9095   5.668   2.355   2.754  0.4451  0.7576 -0.5658
 2835SOL     OW 9096   6.825   3.110   1.062 -0.3312 -0.2509  0.0024
 2835SOL    HW1 9097   6.834   3.142   0.972 -1.7658  1.3115  0.3563
 2835SOL    HW2 9098   6.772   3.031   1.055 -0.5556 -0.0554 -0.5322
 2836SOL     OW 9099   5.059   1.474   1.971 -0.2262 -0.3035 -0.2941
 2836SOL    HW1 9100   5.008   1.555   1.962  0.5904  0.5314  1.7933
 2836SOL    HW2 9101   5.038   1.443   2.060  0.0565 -2.0016 -0.7785
 2837SOL     OW 9102   6.131   2.267   2.993 -0.1954 -0.2392 -0.6015
 2837SOL    HW1 9103   6.174   2.237   2.913  0.6615 -0.6836  0.0192
 2837SOL    HW2 9104   6.114   2.360   2.978  3.2609  0.6425  0.0602
 2838SOL     OW 9105   5.565   3.526   2.374  0.2295 -0.8255  0.8117
 2838SOL    HW1 9106   5.584   3.590   2.306 -0.2134 -0.8039  0.7063
 2838SOL    HW2 9107   5.626   3.454   2.358  0.5616 -0.5378  0.7831
 2839SOL     OW 9108   4.109   2.318   0.837 -0.3665 -0.0849 -0.1424
 2839SOL    HW1 9109   4.047   2.355   0.774 -0.6079 -0.0287  0.1307
 2839SOL    HW2 9110   4.132   2.391   0.894 -0.8714 -0.3625  0.4218
 2840SOL     OW 9111   4.972   4.147   2.880  0.0649  0.0307  0.0758
 2840SOL    HW1 9112   5.043   4.088   2.905  0.8180  1.2638  1.0102
 2840SOL    HW2 9113   4.954   4.126   2.789 -0.4783 -2.3722  0.6754
 2841SOL     OW 9114   5.002   1.920   1.746  0.3829  0.4272  0.3932
 2841SOL    HW1 9115   5.008   2.013   1.769  1.8278  0.2945  0.6810
 2841SOL    HW2 9116   5.071   1.879   1.798  1.4399 -0.4139 -1.5697
 2842SOL     OW 9117   3.063   1.617   3.189 -0.4372 -0.2246 -0.7503
 2842SOL    HW1 9118   3.141   1.586   3.142  0.5744  0.7542  0.2176
 2842SOL    HW2 9119   2.999   1.636   3.121  0.8135  0.6766 -1.7045
 2843SOL     OW 9120   4.480   1.087   2.237  0.0179 -0.1930 -0.1647
 2843SOL    HW1 9121   4.505   1.175   2.209  2.7492 -1.0474 -0.7274
 2843SOL    HW2 9122   4.424   1.101   2.313 -0.6096  2.0109 -0.9435
 2844SOL     OW 9123   4.984   2.225   3.361  0.3401 -0.3713 -0.1268
 2844SOL    HW1 9124   5.022   2.312   3.372 -1.4321  0.5313 -0.7414
 2844SOL    HW2 9125   4.900   2.241   3.318  0.7978 -2.5372 -2.0285
 2845SOL     OW 9126   6.333   1.116   1.658  0.3520  0.0563 -0.4776
 2845SOL    HW1 9127   6.250   1.073   1.640 -0.2487  1.5804 -1.5113
 2845SOL    HW2 9128   6.350   1.097   1.750 -0.3812 -1.4907 -0.6193
 2846SOL     OW 9129   4.417   3.165   0.573  0.1490  0.0574 -0.3528
 2846SOL    HW1 9130   4.358   3.159   0.498 -1.6573  0.6483  0.9395
 2846SOL    HW2 9131   4.401   3.253   0.608  1.8332  0.2256  0.0419
 2847SOL     OW 9132   5.284   1.710   2.935 -0.0186  0.0702  0.2295
 2847SOL    HW1 9133   5.191   1.691   2.942 -0.2947  1.0975 -0.4073
 2847SOL    HW2 9134   5.313   1.725   3.025 -0.2934 -0.9639  0.5030
 2848SOL     OW 9135   6.151   2.164   2.580  0.3760 -0.3204 -0.1804
 2848SOL    HW1 9136   6.166   2.157   2.486 -0.1437 -0.0354 -0.2942
 2848SOL    HW2 9137   6.087   2.096   2.600 -1.4841  1.2054 -0.5293
 2849SOL     OW 9138   4.437   3.118   2.513 -0.5336 -0.1204 -0.4266
 2849SOL    HW1 9139   4.379   3.130   2.438 -1.8880 -0.4995  0.5096
 2849SOL    HW2 9140   4.433   3.201   2.560 -1.0800 -0.4493  0.1322
 2850SOL     OW 9141   5.476   3.120   2.438  0.4574 -0.2791  0.6688
 2850SOL    HW1 9142   5.424   3.145   2.515  0.4746 -3.4007  1.8437
 2850SOL    HW2 9143   5.445   3.032   2.416  3.2055 -1.0839 -0.3957
 2851SOL     OW 9144   4.407   3.753   1.661 -0.3243 -0.2761  0.2274
 2851SOL    HW1 9145   4.333   3.803   1.627  0.2030 -0.6552 -1.6038
 2851SOL    HW2 9146   4.482   3.783   1.610  0.7044 -0.2669  1.6864
 2852SOL     OW 9147   4.650   0.951   1.916  0.0465 -0.4556  0.4100
 2852SOL    HW1 9148   4.692   0.986   1.995  0.9819 -1.9284  0.6013
 2852SOL    HW2 9149   4.660   1.021   1.852  1.5472 -0.1926  0.8750
 2853SOL     OW 9150   4.696   2.592   3.146 -0.4196  0.1979 -0.0656
 2853SOL    HW1 9151   4.718   2.549   3.064 -0.9263 -1.4154  0.5976
 2853SOL    HW2 9152   4.780   2.601   3.192 -0.4668 -1.5140  0.4193
 2854SOL     OW 9153   5.755   3.355   2.891  0.1692  0.0956 -0.2951
 2854SOL    HW1 9154   5.671   3.398   2.906 -0.7913 -0.8032 -2.6405
 2854SOL    HW2 9155   5.819   3.413   2.933 -1.5476  0.9689  1.2831
 2855SOL     OW 9156   5.644   2.418   3.499  0.0817  0.3975 -0.2058
 2855SOL    HW1 9157   5.680   2.381   3.418 -0.8473  1.1883 -0.9956
 2855SOL    HW2 9158   5.550   2.402   3.493  0.1014 -0.3607  1.1644
 2856SOL     OW 9159   4.981   1.664   2.907  0.4329 -0.5409 -0.4479
 2856SOL    HW1 9160   5.003   1.755   2.926 -1.3172 -0.3060  0.6758
 2856SOL    HW2 9161   4.927   1.669   2.828 -0.1691 -0.5176 -0.0432
 2857SOL     OW 9162   5.572   1.551   2.503 -0.1579  0.3981  0.3290
 2857SOL    HW1 9163   5.512   1.541   2.577 -0.0347  0.2181  0.4026
 2857SOL    HW2 9164   5.646   1.600   2.539  0.7869 -1.3232  0.8090
 2858SOL     OW 9165   4.639   2.292   0.008  0.1407 -0.2105  0.7264
 2858SOL    HW1 9166   4.685   2.208   0.020  0.5469 -0.4301 -1.7028
 2858SOL    HW2 9167   4.668   2.346   0.081  2.4230 -1.1459  0.5945
 2859SOL     OW 9168   4.339   0.860   2.242  0.0515  0.7174 -0.0987
 2859SOL    HW1 9169   4.303   0.845   2.155  1.1927  0.2725 -0.5234
 2859SOL    HW2 9170   4.401   0.933   2.230 -0.4828  1.2888  0.5426
 2860SOL     OW 9171   5.051   0.443   1.566 -0.1387  0.5519  0.3401
 2860SOL    HW1 9172   5.023   0.368   1.618  0.4364  0.1967  0.1524
 2860SOL    HW2 9173   4.990   0.513   1.589  0.1789  0.4415  1.5817
 2861SOL     OW 9174   4.857   3.469   2.037  0.1700  0.2110 -0.5601
 2861SOL    HW1 9175   4.885   3.379   2.021  1.0923  0.4096 -0.0904
 2861SOL    HW2 9176   4.938   3.521   2.037 -0.2517  0.8984  0.1251
 2862SOL     OW 9177   4.129   3.063   2.121 -0.2429 -0.1953  0.1207
 2862SOL    HW1 9178   4.213   3.108   2.129 -1.7475  2.6823  1.0924
 2862SOL    HW2 9179   4.122   3.010   2.201  0.4013 -0.0208  0.2975
 2863SOL     OW 9180   4.921   1.963   2.030  0.3534  0.3618  0.4960
 2863SOL    HW1 9181   5.003   2.006   2.056  1.6647 -1.0837 -0.9349
 2863SOL    HW2 9182   4.866   2.033   1.996  1.5339  1.2022  0.2629
 2864SOL     OW 9183   5.376   2.615   3.115  0.0835  0.0866  0.3939
 2864SOL    HW1 9184   5.287   2.580   3.117 -0.2614  0.9647  1.1551
 2864SOL    HW2 9185   5.409   2.593   3.028 -1.0180  0.0841 -0.0380
 2865SOL     OW 9186   4.321   3.421   0.482 -0.0241  0.4862  0.4418
 2865SOL    HW1 9187   4.408   3.455   0.458  0.2982  0.9299  2.0911
 2865SOL    HW2 9188   4.289   3.379   0.403  1.9750 -0.2390 -0.0493
 2866SOL     OW 9189   4.400   2.221   2.071  0.2018 -0.0169 -0.1616
 2866SOL    HW1 9190   4.474   2.278   2.049  0.5318 -0.5778 -0.5447
 2866SOL    HW2 9191   4.377   2.178   1.988  0.3164 -0.8440  0.2224
 2867SOL     OW 9192   3.892   2.225   0.138 -0.4586  0.7174 -0.2397
 2867SOL    HW1 9193   3.838   2.147   0.127 -0.8598  0.9002  0.3998
 2867SOL    HW2 9194   3.964   2.212   0.077 -0.8387  0.1292 -0.5791
 2868SOL     OW 9195   4.443   2.001   2.232  0.4446 -0.3585  0.2971
 2868SOL    HW1 9196   4.436   2.089   2.196 -0.8425 -0.2009  0.8566
 2868SOL    HW2 9197   4.417   1.943   2.161  0.4629 -0.2304  0.1869
 2869SOL     OW 9198   4.698   2.232   3.249 -0.2876 -0.5721 -0.7730
 2869SOL    HW1 9199   4.644   2.159   3.280  0.6711 -1.9226 -2.1277
 2869SOL    HW2 9200   4.656   2.310   3.285 -0.9206 -1.8211  1.3343
 2870SOL     OW 9201   4.109   2.241   3.530  0.3527  0.0290  0.0476
 2870SOL    HW1 9202   4.122   2.317   3.586  0.1367 -1.4801  2.2418
 2870SOL    HW2 9203   4.196   2.219   3.498  0.9264 -0.6753  1.9877
 2871SOL     OW 9204   4.950   3.483   1.743  0.0002  0.0147 -0.5322
 2871SOL    HW1 9205   5.040   3.454   1.734  0.0060  0.0138 -0.4777
 2871SOL    HW2 9206   4.954   3.554   1.808 -0.0846 -0.2181 -0.2695
 2872SOL     OW 9207   3.863   2.713   2.345  0.2712  0.0256  0.0826
 2872SOL    HW1 9208   3.945   2.664   2.347 -0.2883 -1.0419 -1.4218
 2872SOL    HW2 9209   3.889   2.804   2.360  1.5782 -0.4429  0.7836
 2873SOL     OW 9210   2.881   1.502   2.275 -0.3839 -0.0947 -0.4280
 2873SOL    HW1 9211   2.840   1.500   2.361 -1.3622 -0.2932 -0.8910
 2873SOL    HW2 9212   2.833   1.569   2.227 -0.5567 -0.7348 -1.1696
 2874SOL     OW 9213   2.607   1.958   3.426 -0.4542 -0.7894  0.6141
 2874SOL    HW1 9214   2.607   2.008   3.345  1.8021 -0.5117  0.7064
 2874SOL    HW2 9215   2.527   1.906   3.423 -1.6229  0.9798 -0.6430
 2875SOL     OW 9216   3.577   2.683   2.419 -0.2301  0.0217  0.2640
 2875SOL    HW1 9217   3.565   2.692   2.325 -0.6839 -0.2694  0.2949
 2875SOL    HW2 9218   3.641   2.751   2.441  0.4516 -0.4042 -0.3692
 2876SOL     OW 9219   4.577   1.320   2.560 -0.4708  0.0397  0.5443
 2876SOL    HW1 9220   4.511   1.252   2.552 -0.3629  0.0386 -0.5366
 2876SOL    HW2 9221   4.622   1.319   2.476  0.4259  0.5336  1.0048
 2877SOL     OW 9222   6.058   1.937   2.213 -0.5903  0.8131 -0.1564
 2877SOL    HW1 9223   6.063   2.032   2.217 -2.0785  0.8859  0.5552
 2877SOL    HW2 9224   6.114   1.913   2.139  0.8584  2.1135  0.4681
 2878SOL     OW 9225   6.728   1.998   3.489 -0.2291  0.0657  0.0668
 2878SOL    HW1 9226   6.709   2.074   3.435 -0.6818  1.2422  1.7912
 2878SOL    HW2 9227   6.738   1.926   3.427 -3.9552  0.6406 -1.4496
 2879SOL     OW 9228   5.124   2.918   3.297  0.0257 -0.7403 -0.2731
 2879SOL    HW1 9229   5.158   2.958   3.217 -0.2888 -0.9125 -0.4950
 2879SOL    HW2 9230   5.183   2.949   3.366  0.8029 -1.2525 -0.6849
 2880SOL     OW 9231   4.419   0.639   2.365  0.5156 -0.0286  0.5754
 2880SOL    HW1 9232   4.503   0.665   2.401  1.5579 -1.9782 -0.3209
 2880SOL    HW2 9233   4.395   0.710   2.305  1.7318  0.3336  0.5062
 2881SOL     OW 9234   4.781   3.569   1.569 -0.2895  0.6896 -0.1268
 2881SOL    HW1 9235   4.782   3.660   1.599  2.0179  0.3494  1.0920
 2881SOL    HW2 9236   4.854   3.528   1.616  0.3855 -1.1620 -2.5850
 2882SOL     OW 9237   5.077   4.317   1.982 -0.2063 -0.0435 -0.3370
 2882SOL    HW1 9238   5.171   4.301   1.972 -0.2231 -0.4002  0.0197
 2882SOL    HW2 9239   5.044   4.323   1.893 -0.2396 -2.3630 -0.5531
 2883SOL     OW 9240   4.438   2.718   2.854 -0.0914 -0.2711  0.4876
 2883SOL    HW1 9241   4.361   2.771   2.834  0.2789 -0.0144 -0.3317
 2883SOL    HW2 9242   4.439   2.710   2.949 -0.1651  1.1741  0.6323
 2884SOL     OW 9243   4.144   1.724   2.629 -0.1410  0.2678 -0.0242
 2884SOL    HW1 9244   4.100   1.790   2.574  2.4751  1.4368 -0.8788
 2884SOL    HW2 9245   4.079   1.655   2.640 -2.6238  2.4128 -0.0920
 2885SOL     OW 9246   6.775   2.294   0.113  0.2972  0.4602  0.5116
 2885SOL    HW1 9247   6.852   2.238   0.118  0.9700  1.1421 -1.3264
 2885SOL    HW2 9248   6.809   2.380   0.092 -0.9194  0.9405  0.4152
 2886SOL     OW 9249   4.732   2.627   0.510  0.4439 -0.4264  0.5812
 2886SOL    HW1 9250   4.679   2.656   0.583  0.3678 -1.3833  0.9273
 2886SOL    HW2 9251   4.682   2.555   0.470  1.1993 -0.9690  0.5679
 2887SOL     OW 9252   3.794   3.522   2.453  0.8193  0.2507  0.2982
 2887SOL    HW1 9253   3.794   3.533   2.358  0.5895  0.2764  0.3003
 2887SOL    HW2 9254   3.882   3.545   2.480  0.4328  1.9082  0.2752
 2888SOL     OW 9255   4.076   1.903   3.005  0.2498 -0.3789 -0.2018
 2888SOL    HW1 9256   4.166   1.906   2.971  0.0895  0.1061 -0.6025
 2888SOL    HW2 9257   4.033   1.834   2.953  0.7047 -1.4604  0.8139
 2889SOL     OW 9258   3.364   1.141   3.200  0.1148 -0.6933  0.0890
 2889SOL    HW1 9259   3.280   1.109   3.167  1.7269 -1.9074 -3.3081
 2889SOL    HW2 9260   3.362   1.235   3.185  0.1040 -0.9938 -2.0568
 2890SOL     OW 9261   5.106   1.700   1.572  0.0029 -0.0961  0.3632
 2890SOL    HW1 9262   5.093   1.792   1.598 -1.0741 -0.3859  0.9608
 2890SOL    HW2 9263   5.017   1.664   1.569  0.2223 -0.5981 -1.9586
 2891SOL     OW 9264   5.718   2.522   2.483 -0.4713  0.4822  0.2189
 2891SOL    HW1 9265   5.724   2.605   2.531 -0.9843 -0.0632  1.2538
 2891SOL    HW2 9266   5.626   2.497   2.490 -0.5747  0.4037 -1.1090
 2892SOL     OW 9267   3.093   1.767   2.786  0.1941 -0.5606 -0.2314
 2892SOL    HW1 9268   3.173   1.784   2.736 -0.8347 -1.0361 -2.1534
 2892SOL    HW2 9269   3.050   1.852   2.793  1.2592 -0.1347  1.6020
 2893SOL     OW 9270   5.117   2.489   3.412 -0.0202  0.2908  0.0149
 2893SOL    HW1 9271   5.108   2.516   3.503  1.3699  0.1110  0.2255
 2893SOL    HW2 9272   5.070   2.557   3.363  1.3227  1.7952  0.7105
 2894SOL     OW 9273   4.164   2.474   0.102  0.4739  0.6955 -0.4928
 2894SOL    HW1 9274   4.122   2.551   0.064  0.7163  1.0570 -0.0339
 2894SOL    HW2 9275   4.232   2.509   0.159  2.1890  0.1174 -2.0967
 2895SOL     OW 9276   4.525   2.250   2.995 -0.0365  0.0439 -0.0878
 2895SOL    HW1 9277   4.619   2.257   2.983  0.2695 -0.6084  1.6258
 2895SOL    HW2 9278   4.488   2.322   2.944  1.3452  0.0696 -1.0912
 2896SOL     OW 9279   5.579   3.216   2.673  0.2816  0.4793 -0.9427
 2896SOL    HW1 9280   5.661   3.200   2.720 -0.4130 -1.5194 -0.2966
 2896SOL    HW2 9281   5.606   3.234   2.583  1.5883  3.5623 -0.0433
 2897SOL     OW 9282   4.341   1.822   2.034  0.0334  0.0611 -0.1854
 2897SOL    HW1 9283   4.274   1.756   2.049  2.5068 -2.4892  0.6335
 2897SOL    HW2 9284   4.380   1.798   1.949 -0.8561  2.2988 -1.3049
 2898SOL     OW 9285   4.596   1.977   2.987  0.1932  0.2687 -0.1660
 2898SOL    HW1 9286   4.576   2.070   2.987 -0.7420  0.0851 -1.3290
 2898SOL    HW2 9287   4.587   1.950   2.896 -1.9095 -1.4253  0.4542
 2899SOL     OW 9288   4.242   4.002   2.861 -0.2890 -0.2701  0.1260
 2899SOL    HW1 9289   4.223   4.036   2.948 -0.7131  4.5021 -1.5002
 2899SOL    HW2 9290   4.173   4.039   2.805  0.4733 -2.3605 -2.4017
 2900SOL     OW 9291   3.735   2.441   0.187  0.1401 -0.2353  0.4787
 2900SOL    HW1 9292   3.784   2.364   0.159  0.0617 -0.4210  0.8535
 2900SOL    HW2 9293   3.759   2.509   0.123 -2.3167 -1.4090 -1.9046
 2901SOL     OW 9294   6.252   2.458   0.972  0.1441 -0.1974 -0.3510
 2901SOL    HW1 9295   6.296   2.436   0.890 -1.4173  1.3868 -1.6835
 2901SOL    HW2 9296   6.212   2.543   0.956 -0.4952  0.0073  1.9615
 2902SOL     OW 9297   4.433   3.240   1.700  0.1679  0.4316 -0.1338
 2902SOL    HW1 9298   4.491   3.279   1.635  0.5483 -2.4545 -1.6974
 2902SOL    HW2 9299   4.374   3.184   1.649  0.1008 -1.4928  1.8922
 2903SOL     OW 9300   5.553   3.479   1.548  0.2402 -0.6169  0.3078
 2903SOL    HW1 9301   5.635   3.521   1.521 -0.3198  0.1347 -0.3056
 2903SOL    HW2 9302   5.559   3.473   1.643  0.4100  0.7784  0.4114
 2904SOL     OW 9303   4.770   3.226   1.703  0.0887  0.3438  0.1855
 2904SOL    HW1 9304   4.787   3.192   1.616 -4.4050  0.5556 -1.0068
 2904SOL    HW2 9305   4.802   3.316   1.701 -2.0876  1.1776 -2.2600
 2905SOL     OW 9306   4.142   2.534   2.877 -0.0594 -0.0955 -0.1519
 2905SOL    HW1 9307   4.081   2.571   2.814  0.0719  1.7027  0.6935
 2905SOL    HW2 9308   4.094   2.531   2.959  0.4251 -0.3676  0.1300
 2906SOL     OW 9309   5.304   2.701   0.406 -0.5054 -0.0832 -0.6437
 2906SOL    HW1 9310   5.304   2.774   0.468 -0.9075  0.3836 -1.1977
 2906SOL    HW2 9311   5.274   2.626   0.458  1.2193 -0.1941  0.3040
 2907SOL     OW 9312   4.968   1.210   1.491  0.1664 -0.1335 -0.0053
 2907SOL    HW1 9313   5.058   1.203   1.524  0.7792 -2.0858 -1.7973
 2907SOL    HW2 9314   4.969   1.287   1.435  0.2473  0.7707  1.1957
 2908SOL     OW 9315   5.831   2.063   2.341  0.2572 -0.4914 -0.0690
 2908SOL    HW1 9316   5.842   2.156   2.323 -2.1581 -0.3211 -1.0044
 2908SOL    HW2 9317   5.893   2.019   2.283 -2.3859  0.3752 -3.8988
 2909SOL     OW 9318   5.074   4.049   1.480 -0.1618  0.1195 -0.0347
 2909SOL    HW1 9319   5.024   4.127   1.457 -0.3501 -0.5184 -1.9607
 2909SOL    HW2 9320   5.159   4.083   1.507 -0.5195  1.0293  0.0041
 2910SOL     OW 9321   4.433   1.844   3.530  0.1855  0.5412 -0.2916
 2910SOL    HW1 9322   4.487   1.767   3.513 -1.0137 -0.5141  0.4831
 2910SOL    HW2 9323   4.448   1.901   3.455  1.5942 -0.1593 -0.5625
 2911SOL     OW 9324   4.567   1.558   2.696 -0.1162  0.5888  0.1101
 2911SOL    HW1 9325   4.596   1.479   2.649 -2.0697  1.2194 -2.3970
 2911SOL    HW2 9326   4.538   1.526   2.781  1.3159 -1.0191  0.0507
 2912SOL     OW 9327   4.576   3.395   1.529  0.2125  0.3503  0.3795
 2912SOL    HW1 9328   4.606   3.391   1.438  1.9662  0.2793  0.9169
 2912SOL    HW2 9329   4.609   3.479   1.561 -0.0891  0.2201  1.0530
 2913SOL     OW 9330   4.412   1.710   3.051  0.4779  0.5120 -0.1416
 2913SOL    HW1 9331   4.414   1.777   2.982  1.9749  1.3948  0.7017
 2913SOL    HW2 9332   4.377   1.755   3.128  1.4365  0.3408  0.4140
 2914SOL     OW 9333   5.383   3.713   3.114  0.5171  0.0094 -0.1649
 2914SOL    HW1 9334   5.374   3.800   3.153 -0.4123  0.3007 -0.9668
 2914SOL    HW2 9335   5.455   3.672   3.161  0.9354  1.1999  0.2628
 2915SOL     OW 9336   4.766   1.374   3.059 -0.1089 -0.5880  0.6521
 2915SOL    HW1 9337   4.740   1.462   3.086 -0.9619 -0.6031 -0.0896
 2915SOL    HW2 9338   4.789   1.383   2.967  0.6997 -0.9649  0.8086
 2916SOL     OW 9339   5.881   3.274   2.122  0.1149  0.3461  0.1461
 2916SOL    HW1 9340   5.961   3.221   2.128 -0.5536 -1.0530 -2.1263
 2916SOL    HW2 9341   5.878   3.303   2.031 -1.5533  1.0396  0.3905
 2917SOL     OW 9342   3.653   1.783   2.542  0.1994  0.6318  0.4022
 2917SOL    HW1 9343   3.609   1.710   2.585 -0.4246 -0.3725 -1.8103
 2917SOL    HW2 9344   3.691   1.745   2.463 -0.6557  2.7734 -1.1357
 2918SOL     OW 9345   5.432   1.140   0.098 -0.0637 -0.3885  0.6678
 2918SOL    HW1 9346   5.480   1.216   0.128 -0.6207  0.4611 -0.5053
 2918SOL    HW2 9347   5.500   1.076   0.076  0.3750 -0.6717  2.6481
 2919SOL     OW 9348   4.074   2.911   2.395  0.4269  0.0389 -0.2203
 2919SOL    HW1 9349   4.033   2.937   2.477  0.5539  1.4139 -0.5684
 2919SOL    HW2 9350   4.165   2.892   2.419  0.7640  1.5771 -0.2217
 2920SOL     OW 9351   4.783   2.207   1.955 -0.6793  0.6297  0.0109
 2920SOL    HW1 9352   4.753   2.264   2.025 -0.5249  1.8172 -0.8564
 2920SOL    HW2 9353   4.764   2.256   1.875  2.1948  0.8374 -0.6594
 2921SOL     OW 9354   4.378   2.235   3.515  0.2053  0.6649 -0.5647
 2921SOL    HW1 9355   4.465   2.259   3.546 -0.1180 -0.2910  1.2451
 2921SOL    HW2 9356   4.378   2.257   3.422  2.0718  1.4829 -0.4066
 2922SOL     OW 9357   3.570   2.045   1.644 -0.2282 -0.3262  0.4027
 2922SOL    HW1 9358   3.482   2.008   1.642 -0.1631 -0.4629 -1.9456
 2922SOL    HW2 9359   3.559   2.135   1.612  0.2543  0.2905  1.8692
 2923SOL     OW 9360   5.052   1.687   2.205 -0.5508  0.0205  0.8265
 2923SOL    HW1 9361   5.048   1.693   2.110 -1.0031  1.2896  0.9114
 2923SOL    HW2 9362   5.051   1.777   2.235 -1.6960 -0.3686  2.0757
 2924SOL     OW 9363   5.320   3.250   1.928 -0.1284 -0.3214 -0.0192
 2924SOL    HW1 9364   5.328   3.158   1.900  1.2812  0.1372 -1.2906
 2924SOL    HW2 9365   5.339   3.248   2.022  0.6539 -1.2505 -0.1787
 2925SOL     OW 9366   4.224   2.209   0.497 -0.5465 -0.1371 -0.1583
 2925SOL    HW1 9367   4.274   2.278   0.540  0.4834 -1.0639  0.1653
 2925SOL    HW2 9368   4.283   2.134   0.493 -1.8479 -1.2322  0.0920
 2926SOL     OW 9369   5.278   2.973   3.084 -0.3719 -0.0064 -0.3390
 2926SOL    HW1 9370   5.354   2.965   3.142 -1.7468 -0.6869  1.4690
 2926SOL    HW2 9371   5.316   2.986   2.996  1.8022 -0.4567  0.4679
 2927SOL     OW 9372   5.693   1.020   0.267 -0.0013  0.0594  0.1400
 2927SOL    HW1 9373   5.758   0.985   0.328  0.4187  1.7530  0.7290
 2927SOL    HW2 9374   5.622   0.955   0.268  1.4206 -1.5701 -0.1200
 2928SOL     OW 9375   3.857   2.261   0.676 -0.3662  0.0699  0.3739
 2928SOL    HW1 9376   3.862   2.189   0.738  4.1179  0.5727  0.9973
 2928SOL    HW2 9377   3.879   2.222   0.591  1.4098  0.4871  0.5992
 2929SOL     OW 9378   0.063   2.147   3.408  0.0287 -0.1603  0.2831
 2929SOL    HW1 9379   0.121   2.218   3.432 -2.4008  2.1293 -0.2060
 2929SOL    HW2 9380   0.043   2.102   3.490  0.1073  0.9265  0.9047
 2930SOL     OW 9381   5.915   2.374   2.283 -0.5620 -0.0088  0.2014
 2930SOL    HW1 9382   5.852   2.437   2.318 -1.3501  0.1236 -1.3877
 2930SOL    HW2 9383   5.959   2.420   2.212 -0.4917 -0.9434 -0.3775
 2931SOL     OW 9384   5.039   1.916   2.993 -0.4309 -0.2781  0.1317
 2931SOL    HW1 9385   4.969   1.960   3.041 -0.8118  0.4249 -1.0316
 2931SOL    HW2 9386   5.117   1.969   3.011 -0.3627 -0.5703  0.7331
 2932SOL     OW 9387   6.830   3.434   3.430 -0.5509 -0.2244 -0.2489
 2932SOL    HW1 9388   6.918   3.466   3.411 -1.0158  1.6110  0.4574
 2932SOL    HW2 9389   6.831   3.416   3.524 -1.4529  1.8011  0.2057
 2933SOL     OW 9390   4.826   2.948   1.506 -0.1159 -0.3390 -0.1145
 2933SOL    HW1 9391   4.771   2.930   1.429 -1.2199 -0.0063  0.5798
 2933SOL    HW2 9392   4.776   2.915   1.580  0.2473  0.7156  0.6249
 2934SOL     OW 9393   4.167   2.564   0.614 -0.4334 -0.6212  0.1577
 2934SOL    HW1 9394   4.212   2.614   0.682 -0.0428 -1.1445  0.2922
 2934SOL    HW2 9395   4.212   2.479   0.612  0.1982 -0.2805 -1.4355
 2935SOL     OW 9396   4.823   3.833   1.825  0.3470  0.4225  0.1469
 2935SOL    HW1 9397   4.826   3.826   1.920 -1.2965 -1.5593  0.1213
 2935SOL    HW2 9398   4.730   3.824   1.803  0.6945  0.8489 -1.6487
 2936SOL     OW 9399   4.939   2.948   2.150 -0.0483 -0.3046 -0.0905
 2936SOL    HW1 9400   4.942   2.875   2.211  0.5102  0.3645  0.7136
 2936SOL    HW2 9401   4.853   2.941   2.107  0.2666 -1.7813 -0.5086
 2937SOL     OW 9402   6.394   1.975   3.016  0.1777 -1.1566 -0.0795
 2937SOL    HW1 9403   6.349   2.039   2.960 -0.2338 -1.6439 -0.3102
 2937SOL    HW2 9404   6.473   1.953   2.967 -0.2213 -1.6411 -0.5131
 2938SOL     OW 9405   4.082   3.517   3.342  0.5992 -0.4291  0.0661
 2938SOL    HW1 9406   4.106   3.533   3.433  0.1634 -1.8037  0.4430
 2938SOL    HW2 9407   4.083   3.604   3.301 -1.2186  0.5088  1.8632
 2939SOL     OW 9408   3.822   3.519   0.054 -0.2076  0.1498 -0.1885
 2939SOL    HW1 9409   3.752   3.485   0.110 -0.4012  1.4978  0.4182
 2939SOL    HW2 9410   3.791   3.503  -0.035 -2.4270  2.7228 -0.0168
 2940SOL     OW 9411   4.189   2.285   2.770 -0.0414 -0.1528  0.2862
 2940SOL    HW1 9412   4.279   2.294   2.803 -0.2720  0.8090  0.6972
 2940SOL    HW2 9413   4.147   2.367   2.795 -0.4484  0.3233 -1.7515
 2941SOL     OW 9414   3.808   2.298   3.320  0.0066  0.5178  0.1236
 2941SOL    HW1 9415   3.750   2.238   3.367 -0.7955  1.0070 -0.2442
 2941SOL    HW2 9416   3.779   2.385   3.346  1.4560  0.7805  1.0091
 2942SOL     OW 9417   3.296   2.996   2.364  0.2999  0.3921 -0.1591
 2942SOL    HW1 9418   3.281   3.089   2.381 -0.0573  0.5476 -1.2452
 2942SOL    HW2 9419   3.292   2.988   2.268  0.2367 -0.7554 -0.0747
 2943SOL     OW 9420   3.592   2.223   3.531  0.1355 -0.0381  0.0703
 2943SOL    HW1 9421   3.568   2.222   3.624 -0.5842  0.1012 -0.1122
 2943SOL    HW2 9422   3.558   2.140   3.497 -0.6131  0.4210 -0.3173
 2944SOL     OW 9423   4.899   4.131   2.616 -0.4543  0.6898 -0.2120
 2944SOL    HW1 9424   4.824   4.079   2.587  0.2462 -0.1856 -0.5392
 2944SOL    HW2 9425   4.879   4.220   2.590 -1.3894  0.4756 -0.2612
 2945SOL     OW 9426   5.026   3.047   1.759  0.1447  0.3050  0.0450
 2945SOL    HW1 9427   5.052   3.039   1.668  0.2522  0.7734  0.0362
 2945SOL    HW2 9428   5.098   3.007   1.808  0.1172  0.1144 -0.0658
 2946SOL     OW 9429   5.530   2.026   2.382 -0.0887 -0.3151  0.6479
 2946SOL    HW1 9430   5.501   2.024   2.291 -0.4741  1.1652  0.7202
 2946SOL    HW2 9431   5.622   1.999   2.378 -0.2099 -0.6497 -0.1264
 2947SOL     OW 9432   4.425   3.478   2.107 -0.2930 -0.5246  0.0531
 2947SOL    HW1 9433   4.498   3.418   2.092  1.2874  1.7597 -2.4146
 2947SOL    HW2 9434   4.360   3.453   2.041 -0.7375 -1.0886  0.6994
 2948SOL     OW 9435   5.036   3.486   2.807 -0.6204  0.6548  0.1438
 2948SOL    HW1 9436   5.002   3.574   2.819 -2.3206  0.0499 -0.0400
 2948SOL    HW2 9437   4.968   3.440   2.758  0.0019 -0.9171  0.6885
 2949SOL     OW 9438   4.809   1.960   2.584  0.2949  0.4555 -0.0141
 2949SOL    HW1 9439   4.798   1.940   2.491  2.7723 -0.2973 -0.2098
 2949SOL    HW2 9440   4.883   2.021   2.587  1.4768 -0.9779  1.5790
 2950SOL     OW 9441   6.018   1.176   2.838  0.5680 -0.3139  0.2379
 2950SOL    HW1 9442   6.071   1.096   2.842  1.5320  0.2672 -0.6235
 2950SOL    HW2 9443   6.043   1.226   2.916  0.0467 -0.7824  0.7185
 2951SOL     OW 9444   5.785   4.148   1.887  0.0214  0.0965  0.5263
 2951SOL    HW1 9445   5.839   4.200   1.947  0.6085 -0.2940  0.3435
 2951SOL    HW2 9446   5.841   4.133   1.811 -0.8265  0.8745 -0.2834
 2952SOL     OW 9447   5.234   3.330   3.377 -0.8269 -0.4268  0.9393
 2952SOL    HW1 9448   5.238   3.238   3.402 -0.5592 -0.7313 -0.1584
 2952SOL    HW2 9449   5.180   3.331   3.298  1.9417 -0.1715 -1.1154
 2953SOL     OW 9450   4.207   4.070   3.434 -0.0364 -0.1122 -0.6436
 2953SOL    HW1 9451   4.125   4.067   3.386 -0.4538 -0.7181  0.0912
 2953SOL    HW2 9452   4.206   4.155   3.478 -1.3967 -1.0478  1.2611
 2954SOL     OW 9453   3.616   2.688   0.278 -0.9106  0.5937  0.3618
 2954SOL    HW1 9454   3.530   2.652   0.256 -1.1098  0.4582  1.3167
 2954SOL    HW2 9455   3.672   2.662   0.205 -1.3082 -0.7429  0.5028
 2955SOL     OW 9456   3.139   0.073   3.143  0.2755 -0.3290 -0.4256
 2955SOL    HW1 9457   3.107   0.102   3.228 -0.6674 -0.1903 -0.8112
 2955SOL    HW2 9458   3.137  -0.022   3.148  2.8383 -0.4072  0.6451
 2956SOL     OW 9459   5.688   4.745   1.007 -0.0589  0.4900 -0.4804
 2956SOL    HW1 9460   5.754   4.805   0.971  2.3650 -1.3716  0.6020
 2956SOL    HW2 9461   5.689   4.670   0.949 -0.5917  0.0560  0.0549
 2957SOL     OW 9462   3.939   4.550   3.338  0.0835 -0.3193  0.1457
 2957SOL    HW1 9463   3.921   4.629   3.288  2.4514 -0.8283 -1.6810
 2957SOL    HW2 9464   4.034   4.550   3.349  0.0279 -2.3687  1.0297
 2958SOL     OW 9465   4.624   4.906   1.235 -0.0755 -0.5072  0.5119
 2958SOL    HW1 9466   4.595   4.989   1.196 -2.0563 -1.6495 -0.5797
 2958SOL    HW2 9467   4.590   4.908   1.324 -0.6039 -0.3725  0.3115
 2959SOL     OW 9468   3.934   4.471   1.281  0.2010 -0.4396  0.1914
 2959SOL    HW1 9469   3.919   4.467   1.187 -2.8830  0.3173  0.5191
 2959SOL    HW2 9470   3.988   4.549   1.294 -0.4374  0.2036 -0.8928
 2960SOL     OW 9471   4.883   0.574   3.174 -0.0285  0.2638  0.0240
 2960SOL    HW1 9472   4.808   0.629   3.149 -0.0511 -0.4182 -1.5049
 2960SOL    HW2 9473   4.843   0.492   3.203  0.1094 -0.1736 -0.9849
 2961SOL     OW 9474   4.225   4.396   0.907 -0.2134  0.5218 -0.7406
 2961SOL    HW1 9475   4.132   4.386   0.926 -0.0250  0.4605  0.1976
 2961SOL    HW2 9476   4.242   4.335   0.835 -0.7667  0.0742 -0.4952
 2962SOL     OW 9477   4.065   5.137   2.407  0.0475 -0.2036  0.0744
 2962SOL    HW1 9478   4.071   5.102   2.318  0.3727 -0.7889  0.3246
 2962SOL    HW2 9479   4.039   5.063   2.461  0.3953  0.0164  0.5546
 2963SOL     OW 9480   5.219   0.411   2.506  0.6136  0.0676 -0.2006
 2963SOL    HW1 9481   5.127   0.436   2.515  0.7179  0.9356 -1.2705
 2963SOL    HW2 9482   5.225   0.374   2.418  1.4437  0.7858 -0.4621
 2964SOL     OW 9483   4.587   0.107   1.440 -0.0251  0.2037 -0.4863
 2964SOL    HW1 9484   4.540   0.051   1.379  0.0657 -0.0153 -0.3573
 2964SOL    HW2 9485   4.605   0.187   1.391  1.3689 -0.5350 -1.2542
 2965SOL     OW 9486   4.755   4.076   2.293 -0.1120 -0.0313 -0.0416
 2965SOL    HW1 9487   4.846   4.090   2.266  0.6405 -1.7003  1.4200
 2965SOL    HW2 9488   4.722   4.009   2.232  0.1306 -0.5213  0.3625
 2966SOL     OW 9489   4.758   5.005   0.075  0.4372 -0.1157  0.1560
 2966SOL    HW1 9490   4.838   5.043   0.112  0.0759  0.0904  0.7376
 2966SOL    HW2 9491   4.721   4.953   0.146  1.1027 -1.8623 -0.7368
 2967SOL     OW 9492   5.414   0.188   3.067  0.1533  0.6221  0.2524
 2967SOL    HW1 9493   5.358   0.265   3.075  0.1303  0.5246  1.2243
 2967SOL    HW2 9494   5.373   0.123   3.124  0.3225 -0.0260 -0.3457
 2968SOL     OW 9495   3.179   0.041   0.856  0.1140  0.5494  0.0309
 2968SOL    HW1 9496   3.130   0.123   0.850 -1.6613 -0.4710 -0.0999
 2968SOL    HW2 9497   3.178   0.007   0.767  0.4313  0.1598  0.1786
 2969SOL     OW 9498   5.022   3.510   0.839  0.1364  0.3937 -0.7289
 2969SOL    HW1 9499   5.095   3.571   0.828  0.1507  0.6087  0.3695
 2969SOL    HW2 9500   4.945   3.557   0.810  0.2809  0.5955 -0.7856
 2970SOL     OW 9501   3.780   2.932   0.443  0.2857 -0.2991 -0.2584
 2970SOL    HW1 9502   3.841   2.869   0.404 -0.5782 -0.3677 -1.5710
 2970SOL    HW2 9503   3.747   2.887   0.520  3.4206  0.5587  1.7709
 2971SOL     OW 9504   5.341   0.686   1.730 -0.5281  0.4732 -0.6647
 2971SOL    HW1 9505   5.415   0.741   1.704 -0.0924  0.5271  0.6208
 2971SOL    HW2 9506   5.346   0.610   1.673  1.7342 -0.4933  0.6935
 2972SOL     OW 9507   3.530   4.345   3.488  0.1539 -0.2524  0.0905
 2972SOL    HW1 9508   3.503   4.352   3.580  0.8456 -1.9000  0.4571
 2972SOL    HW2 9509   3.606   4.403   3.481 -1.3094  1.7237 -0.0781
 2973SOL     OW 9510   3.188   4.944   0.891 -0.2289  0.0939  0.2070
 2973SOL    HW1 9511   3.131   4.869   0.874  0.8943 -0.3927 -1.6802
 2973SOL    HW2 9512   3.136   5.019   0.862 -1.9652  0.3559  3.4824
 2974SOL     OW 9513   4.392   4.421   3.145  0.0785 -0.3904 -0.0892
 2974SOL    HW1 9514   4.470   4.417   3.200  0.9242  0.3814 -1.1864
 2974SOL    HW2 9515   4.422   4.462   3.064 -1.2911 -0.8363 -0.8541
 2975SOL     OW 9516   5.221   0.745   0.962  0.5145  0.4513  0.0481
 2975SOL    HW1 9517   5.285   0.778   0.900  1.9776  0.8647  1.7077
 2975SOL    HW2 9518   5.259   0.663   0.995 -1.3965 -1.1094 -1.3693
 2976SOL     OW 9519   4.067   5.027   0.935  0.1480 -0.1911  0.6826
 2976SOL    HW1 9520   4.147   5.022   0.987  2.1351 -2.6351 -2.2744
 2976SOL    HW2 9521   4.074   5.110   0.889  1.9631 -1.1000 -0.8111
 2977SOL     OW 9522   6.258   0.053   0.439 -0.0295 -0.4166  0.3690
 2977SOL    HW1 9523   6.198   0.124   0.420  1.5603  1.0371  0.5655
 2977SOL    HW2 9524   6.302   0.035   0.356  1.1101  0.3368  0.7930
 2978SOL     OW 9525   5.138   4.977   2.037  0.6858 -0.0298  0.1274
 2978SOL    HW1 9526   5.194   4.903   2.014 -0.9204 -0.8647 -1.3040
 2978SOL    HW2 9527   5.096   4.951   2.120 -0.2715 -1.0001 -0.6346
 2979SOL     OW 9528   4.338   3.600   3.102  0.1752 -0.1514  0.5136
 2979SOL    HW1 9529   4.399   3.631   3.169  1.4300 -1.9061  0.2236
 2979SOL    HW2 9530   4.264   3.565   3.152  1.0665 -1.3683  1.0247
 2980SOL     OW 9531   4.016   5.222   0.763 -0.6183  0.4514 -0.7051
 2980SOL    HW1 9532   4.009   5.165   0.686 -0.4554  2.3112 -2.1703
 2980SOL    HW2 9533   4.035   5.308   0.727 -0.4105  1.3698  1.4603
 2981SOL     OW 9534   4.417   4.568   0.644 -0.0854 -1.1648 -0.0846
 2981SOL    HW1 9535   4.380   4.481   0.652 -0.0855 -1.1826 -0.2642
 2981SOL    HW2 9536   4.487   4.558   0.579  1.2851 -1.4682  1.3659
 2982SOL     OW 9537   5.151   3.811   1.337 -0.7142 -0.1800  0.5422
 2982SOL    HW1 9538   5.089   3.738   1.347 -0.6829 -0.1975  0.6128
 2982SOL    HW2 9539   5.121   3.876   1.401  0.5655 -1.0336  2.1071
 2983SOL     OW 9540   6.843   4.655   3.393  0.2415  0.4849  0.4469
 2983SOL    HW1 9541   6.898   4.730   3.414  1.6503 -0.4138  0.1553
 2983SOL    HW2 9542   6.861   4.636   3.301 -1.7084  1.0509 -0.0979
 2984SOL     OW 9543   4.948   4.969   0.346 -0.0332 -0.5327 -0.5443
 2984SOL    HW1 9544   5.019   4.918   0.387  0.9894  0.5394 -0.9149
 2984SOL    HW2 9545   4.906   5.014   0.419  0.4809 -0.2156 -0.4317
 2985SOL     OW 9546   4.104   4.030   0.503  0.0472 -0.3872  0.5059
 2985SOL    HW1 9547   4.042   4.086   0.457 -1.4011 -1.3431  1.2377
 2985SOL    HW2 9548   4.096   3.945   0.462  1.3793 -0.3934  0.1878
 2986SOL     OW 9549   5.365   0.101   1.393 -0.6931  0.2096  0.2975
 2986SOL    HW1 9550   5.294   0.144   1.345  0.9414  1.2733 -1.3263
 2986SOL    HW2 9551   5.431   0.083   1.326  1.2766  0.8101  1.9712
 2987SOL     OW 9552   4.275   4.213   1.944 -0.4586  0.1786  0.3130
 2987SOL    HW1 9553   4.228   4.261   1.876 -0.6793  0.2886  0.5425
 2987SOL    HW2 9554   4.346   4.170   1.898 -0.3993  0.5365  0.0695
 2988SOL     OW 9555   5.274   5.194   1.217 -0.3277  0.3416 -0.1479
 2988SOL    HW1 9556   5.314   5.145   1.289  0.6888 -0.7603 -1.4329
 2988SOL    HW2 9557   5.181   5.174   1.223 -0.7485  2.4212  2.4782
 2989SOL     OW 9558   4.864   5.136   1.030 -0.4075  0.7322 -0.2395
 2989SOL    HW1 9559   4.832   5.200   1.094 -2.6030 -0.3918 -0.1418
 2989SOL    HW2 9560   4.872   5.186   0.949  0.1709  1.6381  0.3536
 2990SOL     OW 9561   2.945   5.192   0.648  0.4298  0.1338 -0.4990
 2990SOL    HW1 9562   2.963   5.136   0.723  0.9370  1.2721  0.2690
 2990SOL    HW2 9563   2.850   5.192   0.640  0.2278  1.3211  1.2482
 2991SOL     OW 9564   2.649   5.353   0.386 -0.1611 -0.3605  0.0577
 2991SOL    HW1 9565   2.695   5.427   0.347 -0.5495 -0.1375  0.0119
 2991SOL    HW2 9566   2.627   5.382   0.475 -1.9609  0.3192 -0.5677
 2992SOL     OW 9567   4.633   5.356   0.611  0.2146 -0.0913 -0.6075
 2992SOL    HW1 9568   4.594   5.281   0.567  0.9584 -1.5417  1.0719
 2992SOL    HW2 9569   4.571   5.378   0.681  1.2125 -0.9286  0.6020
 2993SOL     OW 9570   4.081   5.045   0.528 -0.1682 -0.3164 -0.0922
 2993SOL    HW1 9571   4.170   5.014   0.548  1.4487  3.0324 -1.4080
 2993SOL    HW2 9572   4.077   5.047   0.433 -1.4220  0.2481 -0.0449
 2994SOL     OW 9573   5.319   5.055   1.463  0.3730 -0.0319  0.0591
 2994SOL    HW1 9574   5.357   5.137   1.494  1.3278 -0.0047 -1.0916
 2994SOL    HW2 9575   5.235   5.048   1.509 -0.0757  1.9589 -0.3534
 2995SOL     OW 9576   4.542   5.455   0.291 -0.3398 -0.2567 -0.1697
 2995SOL    HW1 9577   4.630   5.421   0.273 -1.2633 -1.6981 -2.4508
 2995SOL    HW2 9578   4.554   5.549   0.301  1.4615 -0.4402 -0.2600
 2996SOL     OW 9579   4.569   4.533   0.153 -0.2409  0.0845  0.1927
 2996SOL    HW1 9580   4.532   4.562   0.069  0.0394  0.7721  0.3043
 2996SOL    HW2 9581   4.643   4.478   0.128 -0.0014  0.4961 -0.0116
 2997SOL     OW 9582   3.626   5.086   0.516  0.0357 -0.0763  0.3141
 2997SOL    HW1 9583   3.565   5.020   0.547  1.1020 -0.9168  0.6916
 2997SOL    HW2 9584   3.647   5.061   0.426 -0.0383  0.0996  0.2481
 2998SOL     OW 9585   4.887   5.337   0.830 -0.1424  0.4668  0.5381
 2998SOL    HW1 9586   4.861   5.309   0.742 -0.9299 -3.6087  1.8529
 2998SOL    HW2 9587   4.812   5.388   0.862 -0.3941  0.8855 -0.6622
 2999SOL     OW 9588   6.664   4.488   1.611 -0.0173  0.5346 -0.5640
 2999SOL    HW1 9589   6.595   4.546   1.579  1.3175  2.2889 -0.3699
 2999SOL    HW2 9590   6.683   4.520   1.699 -0.4750 -1.3637  0.2916
 3000SOL     OW 9591   3.626   5.199   1.096  0.3433  0.1874 -0.0567
 3000SOL    HW1 9592   3.684   5.247   1.036 -0.0491  1.2365  0.3976
 3000SOL    HW2 9593   3.539   5.210   1.059  0.3608 -1.1585 -0.5811
 3001SOL     OW 9594   5.674   4.631   0.284  0.1664  0.0597 -0.1781
 3001SOL    HW1 9595   5.624   4.582   0.350  2.1111 -0.9612  0.6262
 3001SOL    HW2 9596   5.699   4.712   0.328 -1.7620  1.1609 -1.0032
 3002SOL     OW 9597   4.336   0.153   2.973  0.6090  0.3688 -0.0941
 3002SOL    HW1 9598   4.314   0.118   2.886  1.3963  1.0023 -0.5669
 3002SOL    HW2 9599   4.376   0.238   2.954  0.2932  0.7510  0.9308
 3003SOL     OW 9600   3.790   4.238   1.665  0.3024 -0.0103 -0.7437
 3003SOL    HW1 9601   3.802   4.149   1.632 -2.0901 -0.8855  0.5232
 3003SOL    HW2 9602   3.776   4.291   1.587  0.0069 -1.0693 -1.4332
 3004SOL     OW 9603   5.126   0.608   0.684 -0.1596 -0.0845  0.0641
 3004SOL    HW1 9604   5.106   0.670   0.614 -0.0039  0.3930  0.4304
 3004SOL    HW2 9605   5.111   0.658   0.764  0.2271 -0.4404  0.3630
 3005SOL     OW 9606   5.309   3.782   2.151 -0.3473  0.6428 -0.0307
 3005SOL    HW1 9607   5.325   3.873   2.174  0.5483  0.8094 -1.1747
 3005SOL    HW2 9608   5.368   3.766   2.077  0.5006 -1.2331  0.9637
 3006SOL     OW 9609   2.001   5.361   0.469  0.0572  0.2167 -0.1463
 3006SOL    HW1 9610   1.958   5.441   0.498  1.4616  0.9290  0.0454
 3006SOL    HW2 9611   2.009   5.371   0.374  0.8735  0.6369 -0.0369
 3007SOL     OW 9612   5.891   4.581   1.938  0.3363 -0.6163 -0.0621
 3007SOL    HW1 9613   5.871   4.582   1.844  0.9027  0.2442 -0.1870
 3007SOL    HW2 9614   5.815   4.541   1.978 -0.2999 -0.1840 -0.8108
 3008SOL     OW 9615   3.989   4.388   2.721  0.4867  0.0686 -0.0178
 3008SOL    HW1 9616   3.943   4.393   2.806  1.1465  1.9461  0.2700
 3008SOL    HW2 9617   3.988   4.478   2.688  0.9358 -0.4963 -1.6570
 3009SOL     OW 9618   4.528   3.994   1.923  0.1868  0.2104 -0.2210
 3009SOL    HW1 9619   4.432   3.996   1.923  0.1654 -0.0142  1.0071
 3009SOL    HW2 9620   4.549   3.902   1.907  0.1677  0.0738  0.4962
 3010SOL     OW 9621   4.851   4.497   2.343  0.8589  0.2852  0.5399
 3010SOL    HW1 9622   4.784   4.440   2.380  0.7449  0.0578 -0.0103
 3010SOL    HW2 9623   4.896   4.533   2.419  0.0331  0.5358  0.9260
 3011SOL     OW 9624   5.349   5.070   0.966  0.0290  0.5124 -0.3685
 3011SOL    HW1 9625   5.406   5.025   1.028 -0.2073  1.6503  0.7127
 3011SOL    HW2 9626   5.326   5.152   1.010 -4.2530 -0.7909  0.2957
 3012SOL     OW 9627   4.917   4.327   1.476  0.2731  0.1142  0.6144
 3012SOL    HW1 9628   4.827   4.316   1.446  0.3237 -0.1496  0.5562
 3012SOL    HW2 9629   4.968   4.341   1.396  0.5070 -1.2494  0.4983
 3013SOL     OW 9630   5.483   3.589   2.805  0.4715  0.5024 -0.2355
 3013SOL    HW1 9631   5.460   3.628   2.890 -0.1544 -1.1688  0.4024
 3013SOL    HW2 9632   5.416   3.522   2.791  0.4941  0.8352 -2.1334
 3014SOL     OW 9633   4.908   3.294   3.092 -0.1824 -0.0112 -0.3560
 3014SOL    HW1 9634   4.876   3.242   3.165  1.2808 -2.0846 -1.0989
 3014SOL    HW2 9635   4.846   3.278   3.021  0.0691 -0.4815 -0.4740
 3015SOL     OW 9636   4.752   0.039   3.464  0.4381 -0.0526 -0.1222
 3015SOL    HW1 9637   4.678  -0.004   3.507  0.6549  0.6799  0.9972
 3015SOL    HW2 9638   4.829   0.005   3.508  0.6364  1.1294  0.4768
 3016SOL     OW 9639   3.508   4.452   1.010  0.1728  0.6869 -0.0095
 3016SOL    HW1 9640   3.561   4.532   1.006  0.6468  0.5704  2.3754
 3016SOL    HW2 9641   3.418   4.482   0.999  0.4848  1.2394 -1.2860
 3017SOL     OW 9642   5.228   4.164   1.148  0.1594 -0.1912  0.0600
 3017SOL    HW1 9643   5.309   4.214   1.155  0.1888 -0.4140  1.4908
 3017SOL    HW2 9644   5.159   4.227   1.169 -0.1167  0.1203 -1.6107
 3018SOL     OW 9645   4.271   4.360   2.727  0.2149 -0.2144  0.2655
 3018SOL    HW1 9646   4.181   4.370   2.758 -0.5710 -2.6370 -1.0201
 3018SOL    HW2 9647   4.277   4.419   2.652 -0.3062 -0.0684  0.3376
 3019SOL     OW 9648   4.163   0.215   1.084  0.0256  0.2696  0.0064
 3019SOL    HW1 9649   4.111   0.198   1.006 -0.3964  0.7623  0.1763
 3019SOL    HW2 9650   4.222   0.285   1.059 -1.2399  1.5961  0.6032
 3020SOL     OW 9651   4.797   3.661   0.775 -0.3919 -0.0912 -0.3214
 3020SOL    HW1 9652   4.807   3.697   0.687  1.2148 -0.6704 -0.4121
 3020SOL    HW2 9653   4.823   3.732   0.833  0.9174 -0.4494 -0.4315
 3021SOL     OW 9654   4.826   4.461   1.154  0.2734 -0.3173  0.3035
 3021SOL    HW1 9655   4.854   4.391   1.095 -0.5772 -0.9241  0.5855
 3021SOL    HW2 9656   4.794   4.530   1.096 -0.8352 -1.0272  0.0256
 3022SOL     OW 9657   2.650   5.205   1.107 -0.1891 -0.1716 -0.2682
 3022SOL    HW1 9658   2.559   5.178   1.125 -0.0613 -0.8716 -0.6297
 3022SOL    HW2 9659   2.674   5.155   1.029  0.9536 -1.0339  0.5934
 3023SOL     OW 9660   2.495   4.416   2.186 -0.4141 -0.1345  0.3847
 3023SOL    HW1 9661   2.461   4.351   2.124  1.7750  0.2064 -1.3196
 3023SOL    HW2 9662   2.436   4.490   2.179  1.1072  0.9588 -3.4360
 3024SOL     OW 9663   5.130   3.085   0.301 -0.0670  0.2048 -0.1492
 3024SOL    HW1 9664   5.040   3.104   0.327  0.0001  0.0969  0.1758
 3024SOL    HW2 9665   5.123   3.013   0.239 -0.1512 -0.3121  0.4605
 3025SOL     OW 9666   5.120   0.062   2.143  0.0168 -0.3892 -0.2974
 3025SOL    HW1 9667   5.045   0.114   2.116 -0.0864 -0.2564  0.2251
 3025SOL    HW2 9668   5.085  -0.026   2.154 -0.1532 -0.2492  0.3202
 3026SOL     OW 9669   5.746   4.806   0.602  0.2136 -0.0979  0.0025
 3026SOL    HW1 9670   5.779   4.833   0.688  1.8388 -0.4979 -0.4529
 3026SOL    HW2 9671   5.788   4.722   0.586  3.0332  1.6184 -2.7348
 3027SOL     OW 9672   6.301   4.160   2.911 -0.0307  0.3579 -0.3111
 3027SOL    HW1 9673   6.270   4.129   2.825 -1.2582  0.0179  0.2339
 3027SOL    HW2 9674   6.288   4.255   2.908 -0.8957  0.2561 -0.2059
 3028SOL     OW 9675   4.281   0.818   0.285  0.0316 -0.3686 -0.0954
 3028SOL    HW1 9676   4.312   0.835   0.195 -1.3663  1.1264 -0.3341
 3028SOL    HW2 9677   4.220   0.889   0.303  1.9852  0.7322  2.9275
 3029SOL     OW 9678   5.601   5.191   0.909 -0.6022  0.0344  0.0457
 3029SOL    HW1 9679   5.521   5.243   0.918 -0.7908 -0.2392 -0.0475
 3029SOL    HW2 9680   5.576   5.102   0.935  0.0437  0.2470  1.5415
 3030SOL     OW 9681   5.520   3.709   0.025  0.3935  0.2085 -0.2636
 3030SOL    HW1 9682   5.467   3.730   0.102  1.3912  0.6521  0.3162
 3030SOL    HW2 9683   5.468   3.643  -0.022 -1.7025  2.1768 -0.8945
 3031SOL     OW 9684   2.780   4.581   0.342  0.5677 -0.1877  0.1461
 3031SOL    HW1 9685   2.766   4.487   0.327 -2.1107 -0.0603  1.2573
 3031SOL    HW2 9686   2.747   4.596   0.431  1.7769  1.6745  0.3267
 3032SOL     OW 9687   5.170   4.697   1.164 -0.4231  0.0970 -0.0789
 3032SOL    HW1 9688   5.121   4.770   1.128  2.0594  0.3798 -3.3712
 3032SOL    HW2 9689   5.239   4.738   1.217 -1.6376 -0.1739  1.8279
 3033SOL     OW 9690   5.469   5.037   0.341 -0.3095 -0.3312  0.4698
 3033SOL    HW1 9691   5.517   4.975   0.396 -0.0734 -2.0155 -1.5086
 3033SOL    HW2 9692   5.414   5.086   0.403  0.1570 -1.8814  2.2226
 3034SOL     OW 9693   5.029   5.213   2.176 -0.2919 -0.1868 -0.2663
 3034SOL    HW1 9694   5.074   5.188   2.257 -0.7685  0.3552  0.1744
 3034SOL    HW2 9695   5.063   5.153   2.110  0.7016 -0.1113  0.1614
 3035SOL     OW 9696   3.498   4.657   0.770  0.2843  0.3433 -0.3451
 3035SOL    HW1 9697   3.454   4.703   0.841  1.5063 -0.8965  1.2912
 3035SOL    HW2 9698   3.582   4.702   0.761  0.6384 -0.2695 -0.1485
 3036SOL     OW 9699   5.494   0.092   1.149  0.0969 -0.4762 -0.6526
 3036SOL    HW1 9700   5.482   0.076   1.056  1.5405 -0.1820 -0.9212
 3036SOL    HW2 9701   5.584   0.124   1.156 -0.0078 -0.4339  0.8364
 3037SOL     OW 9702   4.942   1.020   2.256 -0.0258  0.1512  0.8048
 3037SOL    HW1 9703   5.037   1.028   2.266  0.1420  0.8057 -0.9025
 3037SOL    HW2 9704   4.929   0.941   2.203 -0.3317  0.7193  0.0050
 3038SOL     OW 9705   4.091   2.706   3.523 -0.3361  0.0699 -0.0326
 3038SOL    HW1 9706   4.157   2.755   3.475 -1.3551  0.8252 -0.7185
 3038SOL    HW2 9707   4.068   2.762   3.598  1.0056 -0.9537  1.1984
 3039SOL     OW 9708   3.763   3.582   0.730 -0.2241 -0.0522 -0.5169
 3039SOL    HW1 9709   3.693   3.571   0.665  0.4826 -0.1750 -1.2671
 3039SOL    HW2 9710   3.759   3.675   0.753 -1.0278 -0.1831 -0.0955
 3040SOL     OW 9711   4.705   0.373   2.538 -0.0886  0.2076  0.1949
 3040SOL    HW1 9712   4.679   0.461   2.566 -2.2387 -0.6093  0.9800
 3040SOL    HW2 9713   4.651   0.357   2.460  0.4897 -0.3278 -0.1021
 3041SOL     OW 9714   5.053   0.481   2.741  0.5510  0.3625  0.0712
 3041SOL    HW1 9715   5.077   0.572   2.756 -0.4289  0.6330  0.0724
 3041SOL    HW2 9716   4.982   0.485   2.678  1.2806 -0.4792 -0.8370
 3042SOL     OW 9717   3.275   4.687   0.590  0.7256 -0.2496 -0.6040
 3042SOL    HW1 9718   3.290   4.720   0.501  0.5988  1.3618 -0.0497
 3042SOL    HW2 9719   3.361   4.694   0.633  0.1500  1.8730  0.2954
 3043SOL     OW 9720   4.402   5.081   0.612 -0.7328 -0.2905  0.3571
 3043SOL    HW1 9721   4.368   5.004   0.656  0.5003 -0.1751  1.5894
 3043SOL    HW2 9722   4.488   5.055   0.579 -0.5767  0.3659  0.2173
 3044SOL     OW 9723   4.807   0.213   0.752 -0.0572  0.2921  0.1151
 3044SOL    HW1 9724   4.805   0.309   0.757 -1.0228  0.2341  1.7417
 3044SOL    HW2 9725   4.882   0.188   0.806 -0.1073  0.1234  0.1053
 3045SOL     OW 9726   3.253   4.761   3.166 -0.0375 -0.9994 -0.0972
 3045SOL    HW1 9727   3.215   4.738   3.081 -0.2065  0.2160 -0.3818
 3045SOL    HW2 9728   3.183   4.808   3.211 -0.1559 -2.1755  0.9884
 3046SOL     OW 9729   4.006   0.500   2.085  0.1838  0.3766 -0.3543
 3046SOL    HW1 9730   3.971   0.564   2.022  0.0781  0.8017  0.1285
 3046SOL    HW2 9731   4.098   0.489   2.059 -0.0359  0.0102 -1.0145
 3047SOL     OW 9732   4.554   4.868   1.551  0.2424  0.3608  0.1100
 3047SOL    HW1 9733   4.630   4.884   1.606  0.8489  0.5992 -0.7737
 3047SOL    HW2 9734   4.565   4.778   1.520  0.2772  0.4608 -0.1755
 3048SOL     OW 9735   4.287   5.051   2.028 -0.3018 -0.6743 -0.7927
 3048SOL    HW1 9736   4.375   5.053   1.989 -0.0042  0.0596 -0.1117
 3048SOL    HW2 9737   4.301   5.019   2.117 -0.5971  0.3111 -0.3836
 3049SOL     OW 9738   4.100   3.858   1.584 -0.0129  0.2310 -0.1511
 3049SOL    HW1 9739   4.067   3.900   1.504  0.3641  0.0777 -0.3895
 3049SOL    HW2 9740   4.040   3.786   1.600  0.5641 -0.4512 -0.9519
 3050SOL     OW 9741   4.202   5.084   1.570 -0.1363  0.0845 -0.0860
 3050SOL    HW1 9742   4.185   5.171   1.607 -2.1453 -0.3807  0.1614
 3050SOL    HW2 9743   4.215   5.028   1.647 -2.8066 -0.5806 -0.0420
 3051SOL     OW 9744   3.784   4.760   0.727  0.5432 -0.1737  0.1494
 3051SOL    HW1 9745   3.747   4.818   0.794 -0.5744  0.4000 -0.9260
 3051SOL    HW2 9746   3.878   4.780   0.728  0.5592 -0.2078  1.5451
 3052SOL     OW 9747   4.267   3.729   1.908  0.3679  0.4082 -0.3611
 3052SOL    HW1 9748   4.283   3.641   1.873 -1.5103  0.1942 -0.8113
 3052SOL    HW2 9749   4.300   3.788   1.840  0.1374  0.0263 -0.8106
 3053SOL     OW 9750   4.261   4.288   0.590 -0.2551  0.5329  0.2572
 3053SOL    HW1 9751   4.338   4.285   0.533 -2.2815 -0.2755 -2.6423
 3053SOL    HW2 9752   4.229   4.198   0.593 -1.6443  1.0028  0.5711
 3054SOL     OW 9753   3.420   4.415   0.645 -0.1685 -0.5097 -0.0759
 3054SOL    HW1 9754   3.390   4.457   0.565  0.3026 -0.9751 -0.4989
 3054SOL    HW2 9755   3.455   4.488   0.698 -4.9084  0.7100  1.9366
 3055SOL     OW 9756   5.379   4.522   2.097 -0.4501  0.1123 -0.0121
 3055SOL    HW1 9757   5.366   4.435   2.061  1.6294  0.0498 -0.7545
 3055SOL    HW2 9758   5.365   4.511   2.191  0.7751 -1.2920  0.0505
 3056SOL     OW 9759   5.876   5.265   1.886  0.3554 -0.4032  0.6509
 3056SOL    HW1 9760   5.856   5.297   1.974  1.8398 -0.1251  0.9200
 3056SOL    HW2 9761   5.961   5.304   1.865  0.2997 -0.9386 -0.6673
 3057SOL     OW 9762   4.887   4.287   0.969 -0.4106 -0.4783  0.0640
 3057SOL    HW1 9763   4.863   4.367   0.921 -1.1613 -1.5035 -1.3549
 3057SOL    HW2 9764   4.957   4.248   0.917 -0.5592 -1.1209  0.3360
 3058SOL     OW 9765   4.610   4.134   3.526  0.2368 -0.3720 -0.6658
 3058SOL    HW1 9766   4.526   4.134   3.479  1.1825 -0.7820 -2.4442
 3058SOL    HW2 9767   4.669   4.084   3.470  1.8412  0.4383  0.2236
 3059SOL     OW 9768   5.542   4.377   0.045 -0.3214 -0.5895  0.1331
 3059SOL    HW1 9769   5.625   4.420   0.063 -0.7239  0.6670 -0.8041
 3059SOL    HW2 9770   5.484   4.405   0.116  0.0862 -1.6336  0.9021
 3060SOL     OW 9771   5.038   0.195   0.908 -0.3215 -0.2971 -0.2250
 3060SOL    HW1 9772   5.085   0.121   0.946 -0.1463 -0.3198 -0.4799
 3060SOL    HW2 9773   5.107   0.250   0.870 -0.2140  1.1709  1.9149
 3061SOL     OW 9774   6.434   0.037   0.678  0.3848  0.4137 -0.2260
 3061SOL    HW1 9775   6.474  -0.050   0.680 -0.7570 -0.1079  1.0089
 3061SOL    HW2 9776   6.371   0.033   0.605  0.7392  0.4037 -0.5342
 3062SOL     OW 9777   2.805   4.074   1.775  0.1907  0.0200  0.3433
 3062SOL    HW1 9778   2.767   4.114   1.696  0.3275  2.1929  1.2961
 3062SOL    HW2 9779   2.889   4.118   1.786  0.0373 -0.0021  1.8694
 3063SOL     OW 9780   5.743   3.767   3.002  0.1999 -0.2972  0.0737
 3063SOL    HW1 9781   5.796   3.838   3.039  0.5640  0.1882 -1.3081
 3063SOL    HW2 9782   5.781   3.752   2.915 -1.1419 -0.8077 -0.4471
 3064SOL     OW 9783   5.151   5.105   0.745  0.1004 -0.1926 -0.3974
 3064SOL    HW1 9784   5.127   5.197   0.748  1.1254  0.0694 -0.1552
 3064SOL    HW2 9785   5.210   5.092   0.819 -0.6111 -1.2131  0.0184
 3065SOL     OW 9786   3.580   0.599   0.150  0.4900 -0.4066 -0.6480
 3065SOL    HW1 9787   3.657   0.650   0.174  0.0629 -0.0674  0.0265
 3065SOL    HW2 9788   3.593   0.578   0.058  1.0886  0.1875 -0.7058
 3066SOL     OW 9789   3.768   5.011   1.296  0.6127 -0.7681 -0.2917
 3066SOL    HW1 9790   3.732   5.060   1.222  2.1154 -1.1213 -1.3249
 3066SOL    HW2 9791   3.858   5.043   1.305  1.0620 -2.0561  0.1493
 3067SOL     OW 9792   2.687   4.668   1.164  0.7329 -0.3708  0.0147
 3067SOL    HW1 9793   2.705   4.743   1.221  1.3268 -0.6397  0.1889
 3067SOL    HW2 9794   2.593   4.652   1.175  0.5820  0.3967 -0.0903
 3068SOL     OW 9795   4.792   4.719   2.956  0.7150 -0.1286 -0.2657
 3068SOL    HW1 9796   4.791   4.655   3.027 -0.2740  0.4159  0.2412
 3068SOL    HW2 9797   4.772   4.668   2.877 -0.7967 -0.3711  0.2334
 3069SOL     OW 9798   4.377   4.196   1.662  0.0060 -0.9830 -0.1542
 3069SOL    HW1 9799   4.299   4.241   1.629  0.2285  0.4267  1.1750
 3069SOL    HW2 9800   4.345   4.109   1.687 -1.1432 -0.4469  0.3097
 3070SOL     OW 9801   2.911   2.502   0.554 -0.6726  0.6305 -0.6382
 3070SOL    HW1 9802   2.891   2.409   0.541  1.2716  0.4230 -2.7851
 3070SOL    HW2 9803   2.881   2.521   0.643  1.5476 -2.8035  1.0492
 3071SOL     OW 9804   2.794   0.601   1.267 -0.1975  0.7840  0.0285
 3071SOL    HW1 9805   2.751   0.686   1.279 -0.0583  0.8189  0.2757
 3071SOL    HW2 9806   2.846   0.588   1.346  0.1566  0.6842 -0.2158
 3072SOL     OW 9807   5.305   4.560   1.652 -0.1010  0.1298  0.0248
 3072SOL    HW1 9808   5.214   4.579   1.673  0.4511  0.4918  2.4428
 3072SOL    HW2 9809   5.356   4.620   1.708  1.6462  0.8624 -2.1900
 3073SOL     OW 9810   4.250   4.497   1.427  0.4717 -0.3746  0.3715
 3073SOL    HW1 9811   4.221   4.588   1.442 -0.6685 -0.5112 -0.8022
 3073SOL    HW2 9812   4.344   4.504   1.414  0.2268  0.8366 -0.9631
 3074SOL     OW 9813   4.788   4.181   3.059  0.2708  0.3879  0.3180
 3074SOL    HW1 9814   4.762   4.089   3.063 -1.2181  0.7034 -1.1804
 3074SOL    HW2 9815   4.867   4.181   3.006 -0.3953  0.0796 -0.6947
 3075SOL     OW 9816   5.807   4.926   0.845 -0.7902  0.4131  0.1344
 3075SOL    HW1 9817   5.901   4.905   0.837 -1.1024 -0.9298 -0.3329
 3075SOL    HW2 9818   5.803   5.021   0.836  0.4289  0.3937 -1.0812
 3076SOL     OW 9819   5.051   2.891   0.551 -0.5015  0.2640  0.1206
 3076SOL    HW1 9820   5.015   2.975   0.523 -1.9514 -0.3746  0.0080
 3076SOL    HW2 9821   5.045   2.835   0.474 -0.6039 -0.2812  0.5171
 3077SOL     OW 9822   3.811   5.333   2.082 -0.0527  0.3552 -0.3531
 3077SOL    HW1 9823   3.763   5.382   2.015 -1.2662  0.2604  0.4131
 3077SOL    HW2 9824   3.779   5.368   2.165  0.7171 -0.1954  0.1905
 3078SOL     OW 9825   3.570   3.081   3.532 -0.3700  0.1008 -0.5743
 3078SOL    HW1 9826   3.540   3.032   3.608 -0.8442  1.0683 -0.1252
 3078SOL    HW2 9827   3.600   3.013   3.470  3.6083 -0.6852  1.8615
 3079SOL     OW 9828   2.966   4.174   2.114  0.1041  0.0916 -0.6516
 3079SOL    HW1 9829   2.883   4.136   2.085 -0.0787 -1.5709  1.6873
 3079SOL    HW2 9830   2.947   4.207   2.202  2.1796 -1.5881  0.5139
 3080SOL     OW 9831   5.735   4.364   3.353  0.5004 -0.1589 -0.2331
 3080SOL    HW1 9832   5.763   4.447   3.313  0.5117  0.1638  0.4249
 3080SOL    HW2 9833   5.706   4.389   3.441 -0.7947 -0.6513 -0.4961
 3081SOL     OW 9834   5.238   3.490   0.353  0.1748  0.1332  0.4429
 3081SOL    HW1 9835   5.228   3.410   0.405 -0.1104 -0.0122  0.1711
 3081SOL    HW2 9836   5.184   3.475   0.276 -0.9370  1.1120  0.9967
 3082SOL     OW 9837   5.601   0.048   1.836 -0.3796 -0.3950 -0.3507
 3082SOL    HW1 9838   5.609   0.016   1.925 -1.5508  1.0206  0.3018
 3082SOL    HW2 9839   5.561  -0.025   1.787  1.6345 -1.7239 -0.1111
 3083SOL     OW 9840   5.871   0.703   0.714  0.6195  0.0953 -0.1147
 3083SOL    HW1 9841   5.837   0.658   0.791 -1.0454  1.2137 -0.1360
 3083SOL    HW2 9842   5.863   0.639   0.643  0.2668 -0.2797  0.2586
 3084SOL     OW 9843   3.042   4.255   2.423 -0.5838  0.5336 -0.4290
 3084SOL    HW1 9844   3.064   4.322   2.488  0.0298 -2.1988  2.4194
 3084SOL    HW2 9845   3.123   4.244   2.372  0.6821 -0.6921  1.7062
 3085SOL     OW 9846   4.059   3.340   3.155  0.1245 -0.2160  0.0874
 3085SOL    HW1 9847   3.976   3.356   3.109  0.6090 -0.8378 -1.0329
 3085SOL    HW2 9848   4.063   3.409   3.221 -2.2258 -1.3185  1.4955
 3086SOL     OW 9849   6.609   3.821   1.397  0.3251  0.5410  0.6823
 3086SOL    HW1 9850   6.546   3.772   1.345 -0.3975  0.2405  1.7919
 3086SOL    HW2 9851   6.577   3.911   1.396  0.3993  0.5655  0.4858
 3087SOL     OW 9852   6.101   0.217   0.136  0.3359  0.7426 -0.0007
 3087SOL    HW1 9853   6.062   0.232   0.222  3.2251  2.4828  1.1482
 3087SOL    HW2 9854   6.105   0.304   0.096  1.1898  0.3124 -0.8795
 3088SOL     OW 9855   3.742   5.399   2.758  0.6991  0.9107  0.9214
 3088SOL    HW1 9856   3.821   5.356   2.791 -0.7713 -1.4266  1.6374
 3088SOL    HW2 9857   3.670   5.359   2.807 -1.2399  0.3342 -2.0987
 3089SOL     OW 9858   5.017   0.201   0.521  0.1164  0.1594 -0.1228
 3089SOL    HW1 9859   4.933   0.207   0.568  0.1598 -1.2037  0.1646
 3089SOL    HW2 9860   4.992   0.203   0.429 -0.1853  0.3152 -0.0410
 3090SOL     OW 9861   4.898   0.322   2.204  0.0707  1.0193  0.0472
 3090SOL    HW1 9862   4.966   0.349   2.143  1.2387  0.6423  1.1500
 3090SOL    HW2 9863   4.924   0.360   2.288 -0.3672 -0.2334  0.7748
 3091SOL     OW 9864   2.929   4.779   0.251  0.1411 -0.1335 -0.1380
 3091SOL    HW1 9865   2.876   4.713   0.295 -1.5598 -0.1258 -2.0251
 3091SOL    HW2 9866   2.989   4.728   0.196  0.4490 -0.1278  0.1939
 3092SOL     OW 9867   5.024   4.502   3.362  0.6348  0.5043 -0.1197
 3092SOL    HW1 9868   5.081   4.521   3.436 -0.4518  0.3249  0.7765
 3092SOL    HW2 9869   5.031   4.407   3.349  0.8931  0.5482 -0.3101
 3093SOL     OW 9870   3.832   3.333   0.868  0.1954  0.5906  0.5184
 3093SOL    HW1 9871   3.904   3.310   0.809  0.8003  0.4608  1.2876
 3093SOL    HW2 9872   3.811   3.423   0.846 -0.2506  0.2517 -0.5528
 3094SOL     OW 9873   3.267   4.730   1.358  0.0702  0.2756 -0.0256
 3094SOL    HW1 9874   3.238   4.798   1.419 -1.4833 -1.3012  1.0975
 3094SOL    HW2 9875   3.286   4.777   1.277 -2.6986  1.8902  0.1245
 3095SOL     OW 9876   5.750   5.024   1.989 -0.5638  0.4349 -0.1052
 3095SOL    HW1 9877   5.817   4.960   1.967 -0.4123  0.1209  1.2202
 3095SOL    HW2 9878   5.774   5.102   1.938  0.3195  0.0621 -0.2737
 3096SOL     OW 9879   4.105   4.858   3.491 -0.3340 -0.3278 -0.2089
 3096SOL    HW1 9880   4.149   4.942   3.475 -1.2340  0.6303  1.8990
 3096SOL    HW2 9881   4.013   4.876   3.474 -0.5169 -0.9004  0.1408
 3097SOL     OW 9882   3.764   0.935   2.052 -0.1606  0.1022  0.1435
 3097SOL    HW1 9883   3.759   0.858   1.995  0.4669  0.8922 -1.0412
 3097SOL    HW2 9884   3.851   0.929   2.092 -0.6200 -0.4784  1.0941
 3098SOL     OW 9885   6.120   4.944   0.828 -0.1239  0.2877 -0.4314
 3098SOL    HW1 9886   6.124   4.981   0.917  1.9701 -0.8897  0.0339
 3098SOL    HW2 9887   6.173   5.003   0.775 -0.6775  0.5245 -0.7298
 3099SOL     OW 9888   5.048   4.278   0.567 -0.0634 -0.2310 -1.0450
 3099SOL    HW1 9889   4.966   4.265   0.520 -1.7158 -1.5028  1.8909
 3099SOL    HW2 9890   5.037   4.362   0.612 -0.5645 -1.1786  0.6956
 3100SOL     OW 9891   4.687   3.132   0.689 -0.7670  0.4000  0.3207
 3100SOL    HW1 9892   4.611   3.124   0.631 -1.2391  0.0097  0.9759
 3100SOL    HW2 9893   4.671   3.213   0.737  1.8638  3.3820 -3.2295
 3101SOL     OW 9894   4.981   4.872   1.036 -0.4562  0.3310  0.1044
 3101SOL    HW1 9895   4.946   4.961   1.037 -1.0026  0.2273 -2.4132
 3101SOL    HW2 9896   4.911   4.818   1.072 -0.6464  0.7563  0.3813
 3102SOL     OW 9897   4.608   3.489   0.459 -0.8457 -0.0853  0.0666
 3102SOL    HW1 9898   4.573   3.574   0.434 -0.7330 -0.2690 -0.7691
 3102SOL    HW2 9899   4.703   3.498   0.446 -0.5952  0.2639  1.8592
 3103SOL     OW 9900   2.746   5.432   1.820 -0.6000  0.1229 -0.4091
 3103SOL    HW1 9901   2.712   5.517   1.794  0.9168  1.2805  1.2032
 3103SOL    HW2 9902   2.815   5.451   1.883 -1.2638 -2.3584  1.2186
 3104SOL     OW 9903   3.438   4.445   1.502 -0.0153 -0.4056  0.0195
 3104SOL    HW1 9904   3.528   4.438   1.535  0.1509 -3.6579 -0.7806
 3104SOL    HW2 9905   3.448   4.491   1.418  0.7089  0.3240  0.4858
 3105SOL     OW 9906   3.833   3.371   3.034  0.1102 -0.2312  0.2318
 3105SOL    HW1 9907   3.810   3.287   2.994  1.1689 -0.5662  0.2763
 3105SOL    HW2 9908   3.791   3.437   2.978 -0.2726 -0.7706 -0.1244
 3106SOL     OW 9909   5.568   4.850   2.104  0.3943  0.0731  0.1322
 3106SOL    HW1 9910   5.475   4.869   2.087  0.3278 -1.5574 -1.7030
 3106SOL    HW2 9911   5.615   4.913   2.049  0.3763  0.4234  0.5111
 3107SOL     OW 9912   3.385   2.569   0.261 -0.1615 -0.3204  0.3265
 3107SOL    HW1 9913   3.302   2.574   0.308 -0.4444 -0.7326 -0.1159
 3107SOL    HW2 9914   3.364   2.520   0.181  0.1271  0.9872 -0.6008
 3108SOL     OW 9915   3.623   0.776   1.320 -0.2948 -0.0143  0.2759
 3108SOL    HW1 9916   3.585   0.772   1.408 -0.0100  1.9268  0.5269
 3108SOL    HW2 9917   3.645   0.685   1.300 -0.2520 -0.4966  2.2713
 3109SOL     OW 9918   3.780   4.396   2.100 -0.0266 -0.4969  0.9829
 3109SOL    HW1 9919   3.784   4.305   2.131  1.2234 -0.0434  2.2971
 3109SOL    HW2 9920   3.823   4.394   2.015 -0.0654 -1.1502  0.9740
 3110SOL     OW 9921   4.924   4.985   1.479  0.1493  0.0152 -0.3389
 3110SOL    HW1 9922   4.852   5.046   1.495 -1.0319 -0.9223 -1.8047
 3110SOL    HW2 9923   4.986   5.034   1.425  0.8594  0.9623  1.2675
 3111SOL     OW 9924   6.045   5.051   1.695  0.5125 -0.8033 -0.0889
 3111SOL    HW1 9925   5.976   5.027   1.757  0.1011  2.3902  0.8857
 3111SOL    HW2 9926   6.060   4.972   1.643 -2.3930 -2.2329  1.0483
 3112SOL     OW 9927   5.251   5.090   1.798  0.2062 -0.2426 -0.0741
 3112SOL    HW1 9928   5.226   5.023   1.735  1.7616 -0.9114 -0.0001
 3112SOL    HW2 9929   5.230   5.052   1.883 -0.0241 -0.1394 -0.0821
 3113SOL     OW 9930   4.725   4.993   0.793 -0.5469 -0.1316  0.3703
 3113SOL    HW1 9931   4.698   5.065   0.849 -0.9460  0.8389 -1.0141
 3113SOL    HW2 9932   4.678   4.917   0.828  0.1887  0.1723  2.0846
 3114SOL     OW 9933   4.740   3.914   0.307 -0.3405  0.0155  0.0645
 3114SOL    HW1 9934   4.687   3.983   0.347  0.3466  0.0837  0.8845
 3114SOL    HW2 9935   4.690   3.834   0.322 -0.8368  0.2426 -0.3312
 3115SOL     OW 9936   5.985   5.070   2.176 -0.2684 -0.0230 -0.0717
 3115SOL    HW1 9937   5.957   4.980   2.194 -0.8217  0.3454  0.9373
 3115SOL    HW2 9938   5.907   5.114   2.143  0.5941 -0.5607 -3.2185
 3116SOL     OW 9939   4.802   5.114   2.053 -0.5276 -0.2751 -0.7434
 3116SOL    HW1 9940   4.821   5.021   2.037 -0.5838 -0.4017 -0.1078
 3116SOL    HW2 9941   4.869   5.142   2.114 -0.6712  0.0360 -0.7258
 3117SOL     OW 9942   3.376   0.012   0.327 -0.0040  0.2307 -0.5081
 3117SOL    HW1 9943   3.364   0.096   0.284 -0.1034  0.6811  0.3754
 3117SOL    HW2 9944   3.297  -0.000   0.380  1.5070  1.3564  2.2501
 3118SOL     OW 9945   3.727   3.980   0.516  0.3362 -0.4833  0.2002
 3118SOL    HW1 9946   3.728   3.885   0.499 -0.3724 -0.2866 -1.0314
 3118SOL    HW2 9947   3.735   3.987   0.611 -0.5341 -1.8034  0.3940
 3119SOL     OW 9948   4.154   5.444   0.654 -0.3668  0.0251 -0.0313
 3119SOL    HW1 9949   4.198   5.464   0.571  1.1626  1.5798  1.0708
 3119SOL    HW2 9950   4.121   5.528   0.685  0.6786 -0.1571  1.7536
 3120SOL     OW 9951   5.051   5.205   3.190  0.5047 -0.4471 -0.5701
 3120SOL    HW1 9952   5.008   5.133   3.237  1.1349 -0.6252 -0.2644
 3120SOL    HW2 9953   5.010   5.204   3.103  0.4092 -1.0931 -0.5244
 3121SOL     OW 9954   4.229   4.502   2.228  0.6749  0.0310 -0.0783
 3121SOL    HW1 9955   4.224   4.407   2.228  1.2664 -0.0123  0.7584
 3121SOL    HW2 9956   4.140   4.531   2.212  0.5829 -0.6622 -0.8589
 3122SOL     OW 9957   4.827   4.737   1.444  0.1439 -0.2230 -0.1106
 3122SOL    HW1 9958   4.849   4.829   1.454 -0.2246 -0.0484 -0.8056
 3122SOL    HW2 9959   4.890   4.704   1.380 -1.4585  0.2651 -2.0621
 3123SOL     OW 9960   3.544   4.754   2.163  0.2786 -0.4899  0.0014
 3123SOL    HW1 9961   3.549   4.689   2.232 -0.3842 -3.0120 -2.1659
 3123SOL    HW2 9962   3.629   4.748   2.119 -0.1161 -0.5400 -0.7645
 3124SOL     OW 9963   5.288   4.416   0.844  0.2115  0.0139 -0.6437
 3124SOL    HW1 9964   5.264   4.342   0.899  0.6651 -1.6262 -2.5400
 3124SOL    HW2 9965   5.349   4.467   0.897  0.5984 -1.4801  0.3936
 3125SOL     OW 9966   4.329   5.078   1.086 -0.5518  0.0708 -0.3031
 3125SOL    HW1 9967   4.314   5.158   1.136 -0.7886 -0.5274  0.6055
 3125SOL    HW2 9968   4.406   5.098   1.032 -0.7285  0.9712 -0.2368
 3126SOL     OW 9969   5.701   4.784   1.505 -0.2957  0.3294  0.1012
 3126SOL    HW1 9970   5.733   4.871   1.527  0.5244  0.0091  0.2223
 3126SOL    HW2 9971   5.729   4.769   1.415 -0.7295  0.3206 -0.0354
 3127SOL     OW 9972   5.134   0.499   1.133 -0.0135  0.0881 -0.6424
 3127SOL    HW1 9973   5.052   0.548   1.138  0.2396  0.3737  1.1799
 3127SOL    HW2 9974   5.183   0.526   1.210  0.2743 -2.7459  0.2849
 3128SOL     OW 9975   5.849   4.560   0.527  0.0133  0.0514  0.0062
 3128SOL    HW1 9976   5.833   4.471   0.558  0.0982  0.6642  1.9516
 3128SOL    HW2 9977   5.938   4.559   0.493  0.5026 -0.3014  1.2729
 3129SOL     OW 9978   4.949   3.753   0.300  0.4335  0.2839  0.0003
 3129SOL    HW1 9979   4.934   3.701   0.221 -1.1061 -0.8202  0.9669
 3129SOL    HW2 9980   4.872   3.809   0.308  0.7010  0.5856  0.5550
 3130SOL     OW 9981   5.893   5.214   0.279 -0.1318  0.2167  0.0956
 3130SOL    HW1 9982   5.974   5.237   0.233 -0.2972  2.1856  0.6849
 3130SOL    HW2 9983   5.922   5.177   0.362  0.1559  0.5275  0.1343
 3131SOL     OW 9984   4.336   2.721   0.780 -0.2252  0.7726  0.1557
 3131SOL    HW1 9985   4.420   2.675   0.788 -0.5155  0.3513  0.7845
 3131SOL    HW2 9986   4.354   2.810   0.808  0.3208  1.0472 -0.9857
 3132SOL     OW 9987   6.989   3.841   3.374 -0.2093 -0.1710  0.4951
 3132SOL    HW1 9988   7.060   3.870   3.316 -1.3879 -2.1429 -2.1768
 3132SOL    HW2 9989   7.033   3.805   3.450  1.4897  1.3143  0.2955
 3133SOL     OW 9990   5.198   3.732   0.854  0.3770  0.3297 -0.0952
 3133SOL    HW1 9991   5.204   3.787   0.776  1.6125 -0.5211 -0.6294
 3133SOL    HW2 9992   5.208   3.793   0.927 -1.0799  1.1793 -0.5584
 3134SOL     OW 9993   3.770   4.985   2.484 -0.4243  0.3313 -0.4194
 3134SOL    HW1 9994   3.716   5.061   2.464 -0.5022  0.5012  0.4046
 3134SOL    HW2 9995   3.784   4.989   2.579 -0.0602 -0.4323 -0.4289
 3135SOL     OW 9996   3.715   3.874   2.260 -0.7890  0.1866 -0.2320
 3135SOL    HW1 9997   3.635   3.893   2.212 -0.7358 -1.3921 -1.0346
 3135SOL    HW2 9998   3.763   3.813   2.204 -0.1223 -0.7389  1.2611
 3136SOL     OW 9999   3.950   2.136   0.432  0.2942  0.1198  0.0172
 3136SOL    HW110000   4.043   2.151   0.448  0.5599  0.3933 -1.6514
 3136SOL    HW210001   3.932   2.178   0.348 -1.2581 -0.2634  0.1157
 3137SOL     OW10002   4.238   3.420   0.146  0.0407 -0.4256  0.2157
 3137SOL    HW110003   4.204   3.497   0.100  0.1592 -0.0684  0.7256
 3137SOL    HW210004   4.177   3.350   0.123 -1.9309  0.4911  2.2480
 3138SOL     OW10005   3.554   4.913   0.046 -0.4740 -0.1519  0.3328
 3138SOL    HW110006   3.553   4.819   0.063 -0.9460 -0.1757  0.1846
 3138SOL    HW210007   3.488   4.948   0.105 -1.1092 -0.0543 -0.4269
 3139SOL     OW10008   5.266   5.452   3.225 -0.1282  0.5080  0.2035
 3139SOL    HW110009   5.285   5.381   3.163 -1.5168 -0.4352  0.8104
 3139SOL    HW210010   5.186   5.492   3.192 -0.1508  0.8452  0.6649
 3140SOL     OW10011   5.437   3.304   3.160 -0.2253  0.1937 -0.0227
 3140SOL    HW110012   5.342   3.305   3.148 -0.0465  1.1221 -1.6498
 3140SOL    HW210013   5.454   3.372   3.225 -0.7842 -1.1581  1.6008
 3141SOL     OW10014   4.172   4.523   2.521 -0.2883  0.1965  0.0180
 3141SOL    HW110015   4.111   4.581   2.567  2.0881  3.0960 -0.2043
 3141SOL    HW210016   4.122   4.492   2.445 -1.8158  1.5726  0.4145
 3142SOL     OW10017   3.840   3.991   3.499  0.0921  0.4265 -0.2278
 3142SOL    HW110018   3.749   3.967   3.487  0.2459  0.3536 -1.3044
 3142SOL    HW210019   3.837   4.071   3.551 -0.4956 -0.6681  1.5016
 3143SOL     OW10020   4.753   4.180   1.930  0.0271  0.0719  0.6401
 3143SOL    HW110021   4.820   4.130   1.977  0.9208 -1.4052 -2.0435
 3143SOL    HW210022   4.674   4.128   1.939 -0.2992  0.7400  1.9858
 3144SOL     OW10023   3.991   4.347   0.556 -0.2898  0.2188  0.2651
 3144SOL    HW110024   4.078   4.315   0.579 -2.3508 -5.3210  2.0553
 3144SOL    HW210025   3.964   4.293   0.482 -1.8829  2.7138 -1.1461
 3145SOL     OW10026   4.662   5.448   1.680  0.2511 -0.2299  0.2437
 3145SOL    HW110027   4.654   5.503   1.601  1.7426  1.2819  1.0783
 3145SOL    HW210028   4.571   5.430   1.706 -0.2708  0.6544 -0.8736
 3146SOL     OW10029   3.484   2.622   3.336 -0.1081  0.1924  0.3562
 3146SOL    HW110030   3.553   2.684   3.315  2.1722 -2.3203 -0.0666
 3146SOL    HW210031   3.447   2.596   3.252 -0.1472 -0.0244  0.4389
 3147SOL     OW10032   4.813   5.380   2.784  0.7585 -0.1918 -0.0106
 3147SOL    HW110033   4.843   5.467   2.760  0.7391 -0.1785  0.0149
 3147SOL    HW210034   4.738   5.364   2.726  0.7621 -0.1917 -0.0154
 3148SOL     OW10035   3.491   0.447   2.812 -0.3669 -0.2623  0.0150
 3148SOL    HW110036   3.577   0.405   2.816 -0.5368 -1.0335 -2.4805
 3148SOL    HW210037   3.507   0.532   2.771 -0.9554 -1.2557 -2.4612
 3149SOL     OW10038   3.490   4.171   3.126 -0.3454  0.0991 -0.1686
 3149SOL    HW110039   3.445   4.086   3.133  0.2264 -0.0916  2.4984
 3149SOL    HW210040   3.427   4.234   3.161  0.1287  0.3705  0.2084
 3150SOL     OW10041   4.154   3.455   2.601 -0.2610  0.9676  0.0013
 3150SOL    HW110042   4.242   3.429   2.627 -0.6179  0.7526  1.0444
 3150SOL    HW210043   4.143   3.544   2.636  0.4443  2.0626 -2.3413
 3151SOL     OW10044   6.852   3.517   3.048 -0.0051 -0.4707 -0.4406
 3151SOL    HW110045   6.937   3.508   3.091  0.6953 -0.5845 -1.8046
 3151SOL    HW210046   6.864   3.479   2.961 -1.3775 -0.2286 -0.7688
 3152SOL     OW10047   3.629   2.975   2.444 -0.2101 -0.3984  0.0481
 3152SOL    HW110048   3.700   3.032   2.473 -0.7823  0.4355 -0.1404
 3152SOL    HW210049   3.649   2.956   2.352 -0.5919  0.4241 -0.2150
 3153SOL     OW10050   2.881   4.837   1.382  0.5632  0.9732  0.2635
 3153SOL    HW110051   2.944   4.884   1.327  0.1073 -0.6848 -1.8080
 3153SOL    HW210052   2.923   4.752   1.399 -0.8943 -0.0394 -0.8994
 3154SOL     OW10053   4.821   4.967   2.299 -0.1774  0.1523 -0.1165
 3154SOL    HW110054   4.823   5.060   2.322  0.3516 -0.1475  1.1366
 3154SOL    HW210055   4.741   4.934   2.341  0.5251 -0.2916  0.9412
 3155SOL     OW10056   4.844   0.119   2.371 -0.1814 -0.1867  0.7103
 3155SOL    HW110057   4.926   0.110   2.420  0.1711  0.5483  0.2690
 3155SOL    HW210058   4.862   0.186   2.305 -1.1483  0.0084  0.6248
 3156SOL     OW10059   4.295   4.129   2.418 -0.5468  0.2441  0.1675
 3156SOL    HW110060   4.303   4.038   2.447  0.0862  0.0784 -0.4952
 3156SOL    HW210061   4.357   4.177   2.474 -0.3063  0.1374 -0.0047
 3157SOL     OW10062   4.909   0.239   1.734 -0.1855 -0.4664  0.2935
 3157SOL    HW110063   4.869   0.210   1.817  3.0925 -3.1416  1.1615
 3157SOL    HW210064   4.891   0.168   1.673 -1.5700  0.9604 -1.0444
 3158SOL     OW10065   4.994   5.409   0.043 -0.2383 -0.1074 -0.7792
 3158SOL    HW110066   5.079   5.387   0.007 -0.6789 -1.3568 -1.0976
 3158SOL    HW210067   4.970   5.333   0.097 -0.5612  0.7934  0.3947
 3159SOL     OW10068   3.770   4.001   1.540 -0.2801 -0.3965 -0.0533
 3159SOL    HW110069   3.767   3.917   1.494 -2.5429 -1.0297  1.1072
 3159SOL    HW210070   3.702   3.994   1.607  1.1476  1.4579  1.6978
 3160SOL     OW10071   4.863   3.507   0.385 -0.7399  0.7353 -0.2994
 3160SOL    HW110072   4.907   3.431   0.423 -2.1960  0.1167  0.2002
 3160SOL    HW210073   4.935   3.562   0.352  0.3432 -0.9201 -0.8269
 3161SOL     OW10074   4.842   0.503   1.825  0.2098 -0.4199  0.8070
 3161SOL    HW110075   4.911   0.491   1.890 -0.6862 -0.8574  1.7009
 3161SOL    HW210076   4.841   0.421   1.776  0.1565 -0.5035  0.9492
 3162SOL     OW10077   4.978   5.202   2.913  0.5019  0.1366  0.1571
 3162SOL    HW110078   4.930   5.266   2.860 -1.7266  0.7464  2.6797
 3162SOL    HW210079   4.993   5.128   2.854 -2.4098  0.4879 -1.1727
 3163SOL     OW10080   3.625   4.424   2.649 -0.3555 -0.1283  0.4369
 3163SOL    HW110081   3.558   4.489   2.628  0.9276  1.0920 -0.0041
 3163SOL    HW210082   3.628   4.421   2.744 -0.7243  0.1407  0.4561
 3164SOL     OW10083   5.236   3.939   0.681 -0.2364  0.2496  0.3220
 3164SOL    HW110084   5.223   3.883   0.604  1.0850 -1.1562  1.0834
 3164SOL    HW210085   5.325   3.972   0.672 -1.2593  3.0744 -0.5787
 3165SOL     OW10086   6.068   0.856   2.287  0.3084  0.3717  0.4397
 3165SOL    HW110087   6.061   0.761   2.296 -2.1979  0.6173  1.8825
 3165SOL    HW210088   6.147   0.869   2.235 -0.3135 -2.5853 -1.4923
 3166SOL     OW10089   3.648   3.381   0.191  0.1421  0.2894 -0.2377
 3166SOL    HW110090   3.676   3.335   0.270  1.7456 -0.2885 -1.0832
 3166SOL    HW210091   3.644   3.312   0.124  1.9694  1.1907 -1.3840
 3167SOL     OW10092   2.501   4.383   2.751 -0.6985 -0.6981 -0.0028
 3167SOL    HW110093   2.574   4.373   2.690 -1.4166  0.0311 -1.0089
 3167SOL    HW210094   2.540   4.370   2.838  0.5185 -0.8095 -0.5502
 3168SOL     OW10095   6.207   4.492   3.442  0.3511  0.2002  0.4078
 3168SOL    HW110096   6.171   4.557   3.501 -1.4956  0.2067 -0.6519
 3168SOL    HW210097   6.185   4.524   3.354  0.2688 -1.3387 -0.1646
 3169SOL     OW10098   4.681   4.338   3.299 -0.0951  0.1939  0.0548
 3169SOL    HW110099   4.740   4.280   3.249  0.2474  0.3511  0.2718
 3169SOL    HW210100   4.605   4.283   3.317  0.6263 -0.5216  1.0881
 3170SOL     OW10101   4.021   4.127   2.714 -0.0102 -0.0313  0.3499
 3170SOL    HW110102   3.963   4.095   2.645  0.2788 -0.5233  0.3344
 3170SOL    HW210103   4.037   4.219   2.691  2.0367 -0.7770 -1.6082
 3171SOL     OW10104   3.520   0.162   0.923 -0.4432 -0.3795  0.2817
 3171SOL    HW110105   3.433   0.200   0.934 -0.2532  0.1523 -0.0118
 3171SOL    HW210106   3.565   0.179   1.006 -0.3190  0.1381  0.1060
 3172SOL     OW10107   3.987   3.439   1.887  0.3169  0.4118  0.2191
 3172SOL    HW110108   3.979   3.518   1.834  1.4488  1.8035  1.9906
 3172SOL    HW210109   3.909   3.439   1.942  0.2890  0.2366  0.1822
 3173SOL     OW10110   4.542   4.976   3.435 -0.0564 -0.3746  0.1081
 3173SOL    HW110111   4.619   4.965   3.491 -0.1474 -2.7269 -0.1311
 3173SOL    HW210112   4.555   5.062   3.393  2.0887 -0.4183  0.5641
 3174SOL     OW10113   3.941   2.614   3.058 -0.0820 -0.3787 -0.6945
 3174SOL    HW110114   3.964   2.680   3.124  1.8066 -1.0619 -0.6221
 3174SOL    HW210115   3.847   2.628   3.043  0.0116  1.5596  0.1506
 3175SOL     OW10116   5.202   0.004   1.081 -0.6367  0.6962  0.4431
 3175SOL    HW110117   5.204  -0.069   1.143  1.4850  1.9526  1.9521
 3175SOL    HW210118   5.205   0.083   1.135  0.7636  1.8465 -1.2041
 3176SOL     OW10119   5.484   3.890   0.492  0.5540  0.0924  0.0084
 3176SOL    HW110120   5.577   3.866   0.493  0.3449 -0.7426  1.1485
 3176SOL    HW210121   5.478   3.964   0.553  0.5903  0.6637 -0.6719
 3177SOL     OW10122   4.727   0.321   0.454  0.1694 -0.3465  0.2155
 3177SOL    HW110123   4.722   0.347   0.546 -2.3591 -0.3562  0.1534
 3177SOL    HW210124   4.698   0.398   0.406  3.1559  0.2652 -0.7711
 3178SOL     OW10125   4.055   4.809   1.494 -0.0883  0.1279  0.8474
 3178SOL    HW110126   4.081   4.876   1.557 -0.4378  1.0200  0.0483
 3178SOL    HW210127   4.036   4.732   1.549 -1.2696  1.1435  1.9261
 3179SOL     OW10128   5.298   4.774   3.087  0.0879  0.0342 -0.6188
 3179SOL    HW110129   5.211   4.811   3.072 -1.0072 -2.1376 -0.0486
 3179SOL    HW210130   5.293   4.735   3.175  2.1117  1.0634  0.0359
 3180SOL     OW10131   4.445   3.385   2.647  0.9802 -0.0551 -0.0262
 3180SOL    HW110132   4.486   3.437   2.578  0.3263  1.0231  0.3687
 3180SOL    HW210133   4.483   3.418   2.728  1.2653 -0.8679  0.1808
 3181SOL     OW10134   4.816   5.260   1.804  0.2756  0.9682 -0.1037
 3181SOL    HW110135   4.765   5.334   1.772  0.5747  1.2190  0.0018
 3181SOL    HW210136   4.777   5.240   1.890 -0.6441  0.1778 -0.6917
 3182SOL     OW10137   4.431   3.893   2.682 -0.5512 -0.2356  0.3908
 3182SOL    HW110138   4.383   3.879   2.600  0.9738  1.3194 -0.8380
 3182SOL    HW210139   4.374   3.950   2.734 -0.4801  0.8393 -0.6644
 3183SOL     OW10140   3.530   5.354   3.199 -0.5494 -0.2489 -0.1845
 3183SOL    HW110141   3.499   5.266   3.221  0.0440 -0.7971 -1.4334
 3183SOL    HW210142   3.484   5.412   3.260  0.7961 -1.6068  2.2978
 3184SOL     OW10143   3.617   3.960   1.771  0.4187 -0.1115  0.5490
 3184SOL    HW110144   3.527   3.927   1.774 -0.0808  1.1288 -0.0820
 3184SOL    HW210145   3.625   4.013   1.850  1.2686 -1.7959  1.6429
 3185SOL     OW10146   3.607   5.266   2.947  0.0503 -0.1295 -0.7583
 3185SOL    HW110147   3.584   5.309   3.030  1.9810  2.4732 -1.4322
 3185SOL    HW210148   3.634   5.178   2.972 -0.9168  0.0484  1.1492
 3186SOL     OW10149   4.628   4.219   2.850 -0.1033 -0.5524  0.0785
 3186SOL    HW110150   4.608   4.311   2.834 -0.3320 -0.8937 -1.7343
 3186SOL    HW210151   4.687   4.221   2.926  0.5461  1.1545 -0.4169
 3187SOL     OW10152   4.828   3.835   3.201  0.0225 -0.1289 -0.0526
 3187SOL    HW110153   4.736   3.852   3.178  0.2258  0.9947 -0.1139
 3187SOL    HW210154   4.843   3.744   3.175 -1.4176 -0.7421  1.0889
 3188SOL     OW10155   4.599   2.813   3.341 -0.2054 -0.3631  0.2874
 3188SOL    HW110156   4.588   2.720   3.321  2.0086 -0.8926  1.2282
 3188SOL    HW210157   4.646   2.849   3.266 -0.3081 -0.2077  0.2978
 3189SOL     OW10158   3.844   3.143   2.482 -0.1831 -0.1841 -0.0676
 3189SOL    HW110159   3.869   3.170   2.394  1.4655  2.4871  1.0695
 3189SOL    HW210160   3.927   3.121   2.525 -0.6796  0.6420  1.4065
 3190SOL     OW10161   5.093   4.827   2.275  0.1228 -0.3297  0.2018
 3190SOL    HW110162   5.001   4.851   2.285 -0.2293  0.0945 -3.0047
 3190SOL    HW210163   5.091   4.742   2.230  1.1416  1.0654 -2.7482
 3191SOL     OW10164   5.225   3.551   2.271  0.5056  0.9781 -0.5378
 3191SOL    HW110165   5.269   3.483   2.219  0.5306  1.1830 -0.7902
 3191SOL    HW210166   5.267   3.633   2.243  1.4909  0.9711  0.8064
 3192SOL     OW10167   5.704   0.346   2.745 -0.0827 -0.4113  0.2111
 3192SOL    HW110168   5.629   0.379   2.794 -0.5566 -0.6831 -0.3087
 3192SOL    HW210169   5.677   0.259   2.717  0.2934 -0.3734 -0.2785
 3193SOL     OW10170   4.964   3.632   0.060  0.4470  0.0089 -0.0142
 3193SOL    HW110171   4.985   3.645  -0.033  0.1470  0.1204 -0.0695
 3193SOL    HW210172   4.887   3.574   0.058 -0.1116  0.7365  0.1389
 3194SOL     OW10173   4.709   4.577   2.719  0.6727  0.2288  0.2566
 3194SOL    HW110174   4.756   4.541   2.645 -1.4406 -1.0043 -0.5422
 3194SOL    HW210175   4.679   4.663   2.689 -1.3931 -0.8382 -0.9136
 3195SOL     OW10176   4.523   0.398   1.953  0.1358 -0.6600  0.3478
 3195SOL    HW110177   4.543   0.375   1.862 -0.2367  0.1394  0.0563
 3195SOL    HW210178   4.582   0.471   1.973 -1.7304  1.0662 -0.1980
 3196SOL     OW10179   5.217   3.692   1.692 -0.3275 -0.0133 -0.3097
 3196SOL    HW110180   5.221   3.644   1.610 -4.0630 -1.2286  0.0362
 3196SOL    HW210181   5.160   3.766   1.675  1.6985  1.8150  0.3754
 3197SOL     OW10182   3.822   4.201   0.120  0.2122 -0.3764 -0.1190
 3197SOL    HW110183   3.743   4.191   0.174  1.9006 -0.3015  2.5649
 3197SOL    HW210184   3.831   4.295   0.107 -0.5403 -0.4292 -1.1457
 3198SOL     OW10185   4.508   3.740   0.410  0.0902  0.2442  0.8162
 3198SOL    HW110186   4.450   3.731   0.485  1.3477  0.5780  1.8561
 3198SOL    HW210187   4.454   3.782   0.343 -0.1382  3.1899  2.6808
 3199SOL     OW10188   5.414   4.635   2.885 -0.3199  0.8511 -0.0238
 3199SOL    HW110189   5.486   4.601   2.938 -0.8520  0.3420  0.4019
 3199SOL    HW210190   5.362   4.687   2.947 -0.6307  0.7245 -0.1754
 3200SOL     OW10191   4.089   3.627   0.034 -0.2860 -0.0309  0.3071
 3200SOL    HW110192   4.000   3.596   0.047 -1.1243  2.1838  0.2728
 3200SOL    HW210193   4.080   3.722   0.020  1.8701 -0.0079 -1.6268
 3201SOL     OW10194   4.585   4.887   0.459 -0.3274 -0.2605 -0.1305
 3201SOL    HW110195   4.657   4.830   0.432 -2.1265 -2.2907 -0.9434
 3201SOL    HW210196   4.543   4.912   0.376  0.1100  1.9192  0.2463
 3202SOL     OW10197   4.854   3.108   3.480 -0.1113  0.1481  0.1665
 3202SOL    HW110198   4.821   3.137   3.395  1.8974  1.1755 -0.3175
 3202SOL    HW210199   4.926   3.048   3.459  1.3223  1.4689  1.0755
 3203SOL     OW10200   3.693   5.001   2.935 -0.3577  0.7802  0.3981
 3203SOL    HW110201   3.685   4.906   2.935  0.7205  0.6834  0.7215
 3203SOL    HW210202   3.786   5.018   2.918 -0.4336  1.7613  0.8737
 3204SOL     OW10203   4.647   5.316   2.180 -0.3823 -0.5918 -0.0690
 3204SOL    HW110204   4.686   5.233   2.151 -1.0989 -1.3040  0.9028
 3204SOL    HW210205   4.706   5.347   2.249 -0.1714 -0.3491 -0.3589
 3205SOL     OW10206   4.853   5.004   3.329  0.1243 -0.2351 -0.1398
 3205SOL    HW110207   4.827   4.913   3.344  1.0580 -0.6090 -0.7237
 3205SOL    HW210208   4.849   5.045   3.416  0.3620 -1.0109  0.2423
 3206SOL     OW10209   5.358   4.542   1.370  0.1185  0.2367  0.3874
 3206SOL    HW110210   5.343   4.448   1.358 -1.3304  0.1798  2.2508
 3206SOL    HW210211   5.337   4.558   1.462 -1.4517  2.7170 -0.3065
 3207SOL     OW10212   4.288   3.861   2.440  0.7206  0.3318 -0.2639
 3207SOL    HW110213   4.197   3.852   2.468  0.3652  3.9421  0.1553
 3207SOL    HW210214   4.298   3.794   2.372 -2.2696 -0.1220 -0.4242
 3208SOL     OW10215   3.440   4.602   2.691  0.2586 -0.3929 -0.3314
 3208SOL    HW110216   3.422   4.684   2.644 -1.0864  1.3595  2.8662
 3208SOL    HW210217   3.353   4.565   2.707  0.6807 -1.0261  0.5325
 3209SOL     OW10218   4.581   0.968   3.453 -0.0043  0.2038 -0.7305
 3209SOL    HW110219   4.498   0.966   3.404 -0.5154 -0.1325  0.1246
 3209SOL    HW210220   4.569   1.040   3.516  0.4873  0.3713 -0.8290
 3210SOL     OW10221   5.099   0.971   1.081  0.2929  0.4826 -0.1748
 3210SOL    HW110222   5.136   0.890   1.045 -0.7437  0.2300 -0.7111
 3210SOL    HW210223   5.099   0.957   1.176  0.6422  0.0875 -0.2302
 3211SOL     OW10224   5.076   4.178   2.405 -0.2386  0.3389  0.4978
 3211SOL    HW110225   5.036   4.151   2.488  0.3582 -0.4690  0.5274
 3211SOL    HW210226   5.075   4.099   2.351 -0.7424  0.8943 -0.3238
 3212SOL     OW10227   3.887   4.809   3.183  0.2864 -0.2677  0.0383
 3212SOL    HW110228   3.868   4.888   3.234 -0.5574  0.6005 -1.5180
 3212SOL    HW210229   3.963   4.833   3.129  0.0478 -0.5100 -0.4178
 3213SOL     OW10230   4.147   2.912   0.145  0.0218  0.3845 -0.0114
 3213SOL    HW110231   4.133   2.876   0.233  2.0410  1.3552  0.7690
 3213SOL    HW210232   4.240   2.901   0.130 -0.2360  0.5580 -1.9211
 3214SOL     OW10233   4.674   4.578   2.103  0.2771  0.5813  0.2610
 3214SOL    HW110234   4.730   4.551   2.176  0.4431 -0.4289 -0.2392
 3214SOL    HW210235   4.616   4.645   2.142  1.3787  1.1791  0.9348
 3215SOL     OW10236   4.302   3.756   0.601  0.1573 -0.1822  0.6637
 3215SOL    HW110237   4.293   3.837   0.652  1.3713 -0.9416  2.1742
 3215SOL    HW210238   4.216   3.716   0.604  0.7173 -1.5473  4.5966
 3216SOL     OW10239   5.324   5.109   3.278 -0.6405 -0.2349  0.2305
 3216SOL    HW110240   5.374   5.187   3.304  0.1417 -0.3459 -0.8402
 3216SOL    HW210241   5.247   5.144   3.233  0.0476 -0.0513 -0.8503
 3217SOL     OW10242   4.467   4.974   2.829 -0.1822 -0.6042 -0.3619
 3217SOL    HW110243   4.419   5.031   2.768 -1.3197 -1.9553 -0.7843
 3217SOL    HW210244   4.477   5.026   2.908 -2.6241 -0.3471 -0.1559
 3218SOL     OW10245   5.459   0.167   0.050 -0.2939  0.2733  0.1270
 3218SOL    HW110246   5.456   0.077   0.082  0.2524  0.3196  0.3244
 3218SOL    HW210247   5.387   0.211   0.096 -1.1609 -0.2715 -0.6720
 3219SOL     OW10248   3.743   2.587   2.623 -0.1627 -0.0316 -0.2971
 3219SOL    HW110249   3.723   2.495   2.641 -0.4455  0.1451  0.3278
 3219SOL    HW210250   3.733   2.596   2.528  1.3345 -0.9856 -0.5665
 3220SOL     OW10251   4.701   2.711   0.039  0.6699 -0.4780 -0.2892
 3220SOL    HW110252   4.613   2.676   0.048  0.0402  0.7461 -1.4347
 3220SOL    HW210253   4.692   2.786  -0.020  2.0761  1.1745  1.4632
 3221SOL     OW10254   5.216   0.284   0.128 -0.0714 -0.2680  0.1228
 3221SOL    HW110255   5.133   0.258   0.169  0.2861 -1.3829  0.1649
 3221SOL    HW210256   5.208   0.255   0.037  1.0880 -2.3395  0.6330
 3222SOL     OW10257   4.593   3.913   3.107 -0.0638  0.5110 -0.8209
 3222SOL    HW110258   4.620   3.899   3.016 -0.7640  2.2604 -1.3310
 3222SOL    HW210259   4.508   3.955   3.101 -0.5413 -0.1651  0.6874
 3223SOL     OW10260   5.156   1.678   0.695 -0.4408 -0.3403  0.0478
 3223SOL    HW110261   5.061   1.683   0.707 -0.3208  0.2417  0.8589
 3223SOL    HW210262   5.168   1.666   0.600 -1.3041  0.4495 -0.1773
 3224SOL     OW10263   4.258   3.146   3.132 -0.0776 -0.3791 -0.1019
 3224SOL    HW110264   4.327   3.167   3.196 -0.9709 -1.3716  1.2558
 3224SOL    HW210265   4.201   3.222   3.132  0.0657 -0.2712  0.1031
 3225SOL     OW10266   4.512   3.502   2.912  0.1758 -0.3334 -0.3434
 3225SOL    HW110267   4.554   3.575   2.867  0.7110 -0.0277  0.6141
 3225SOL    HW210268   4.444   3.543   2.966  0.5539 -0.5216  0.2849
 3226SOL     OW10269   4.383   3.979   0.801  0.3253 -0.5512  0.1976
 3226SOL    HW110270   4.447   4.035   0.845 -1.0547  0.8448  0.5254
 3226SOL    HW210271   4.423   3.892   0.802  1.6155  0.0065  1.5837
 3227SOL     OW10272   4.869   5.008   2.680 -0.6437  0.4391  0.2924
 3227SOL    HW110273   4.846   5.083   2.625 -0.5018  0.1054 -0.2278
 3227SOL    HW210274   4.956   4.982   2.651 -1.7230 -1.5916 -1.4274
 3228SOL     OW10275   5.209   4.283   2.719  0.5446  0.1719  0.3300
 3228SOL    HW110276   5.256   4.211   2.679  0.3685  0.0779  0.2925
 3228SOL    HW210277   5.176   4.247   2.801 -1.1748 -0.3718 -0.5611
 3229SOL     OW10278   4.697   3.911   2.854 -0.1809  0.0932 -0.3361
 3229SOL    HW110279   4.654   3.859   2.786 -0.0204 -2.7367  1.5634
 3229SOL    HW210280   4.727   3.990   2.808 -2.9180 -0.1252 -2.8038
 3230SOL     OW10281   4.619   4.204   0.829  0.0227  0.0217  0.0922
 3230SOL    HW110282   4.555   4.243   0.770 -0.3746 -0.6702  0.0424
 3230SOL    HW210283   4.680   4.274   0.850  1.6750 -0.3094 -3.1129
 3231SOL     OW10284   2.959   4.443   2.639  0.1687 -0.1148 -0.1178
 3231SOL    HW110285   3.047   4.424   2.671  0.3578 -0.5125 -0.8539
 3231SOL    HW210286   2.965   4.532   2.603  0.0501  0.1852  0.5928
 3232SOL     OW10287   4.641   3.120   2.141 -0.6530 -0.1324 -0.0253
 3232SOL    HW110288   4.619   3.179   2.069  0.6918 -0.1861 -0.4936
 3232SOL    HW210289   4.703   3.170   2.195  0.8862 -1.2620 -0.6914
 3233SOL     OW10290   5.500   4.751   1.713 -0.1976 -0.1190 -0.1870
 3233SOL    HW110291   5.557   4.782   1.643  1.6327 -1.5613  0.5859
 3233SOL    HW210292   5.559   4.720   1.781 -1.9131 -0.9208  1.0239
 3234SOL     OW10293   4.712   3.305   2.884  0.3297 -0.0160  0.2836
 3234SOL    HW110294   4.634   3.350   2.915 -0.3280  0.5962 -2.0253
 3234SOL    HW210295   4.746   3.361   2.814  2.9439 -0.2103  1.2909
 3235SOL     OW10296   4.973   5.329   0.431 -0.0047  0.5899 -0.1576
 3235SOL    HW110297   4.923   5.409   0.449 -0.9646 -0.0091 -0.0606
 3235SOL    HW210298   4.909   5.259   0.442  0.2404 -0.0708 -2.3325
 3236SOL     OW10299   5.988   3.463   2.999 -0.1982 -0.0241 -0.0779
 3236SOL    HW110300   6.038   3.528   2.950  0.6696 -1.1949 -0.7886
 3236SOL    HW210301   6.049   3.391   3.013 -0.6806 -0.0887  2.0082
 3237SOL     OW10302   5.179   4.062   1.855  0.1205  0.1902 -0.2732
 3237SOL    HW110303   5.100   4.042   1.907  1.3180 -0.8498  1.2235
 3237SOL    HW210304   5.179   3.997   1.785  0.7862 -1.2778  1.0333
 3238SOL     OW10305   3.646   5.374   2.501  0.3327 -0.1016 -0.5927
 3238SOL    HW110306   3.707   5.389   2.573  0.3621 -0.7193 -0.4801
 3238SOL    HW210307   3.666   5.443   2.438 -0.6385  1.2892  0.5850
 3239SOL     OW10308   2.244   4.527   3.368  0.0047  0.0014 -0.1256
 3239SOL    HW110309   2.197   4.461   3.419 -0.6451  1.0467  0.6534
 3239SOL    HW210310   2.215   4.512   3.278  0.1024 -0.9635 -0.0143
 3240SOL     OW10311   4.558   3.527   2.442  0.1222 -0.7715  0.0893
 3240SOL    HW110312   4.561   3.616   2.405 -1.2946 -1.4513 -1.8556
 3240SOL    HW210313   4.634   3.483   2.405 -0.0924 -0.8167 -0.3122
 3241SOL     OW10314   6.173   4.075   1.600 -0.2753 -0.1213 -0.0641
 3241SOL    HW110315   6.215   4.018   1.535  0.6638  1.9140 -1.3700
 3241SOL    HW210316   6.219   4.057   1.682  1.2818  0.0366 -0.8651
 3242SOL     OW10317   4.030   4.213   1.805 -0.2579  0.0847  0.4312
 3242SOL    HW110318   3.937   4.201   1.788 -0.5659  2.1749  0.4358
 3242SOL    HW210319   4.066   4.250   1.724  0.5398 -0.4947  0.5015
 3243SOL     OW10320   4.751   0.359   2.940  0.4045  0.3156 -0.8694
 3243SOL    HW110321   4.726   0.350   3.032 -0.4258 -1.1420 -1.1952
 3243SOL    HW210322   4.841   0.327   2.937 -0.6461 -3.0605 -1.0353
 3244SOL     OW10323   4.307   2.756   3.330 -0.1949 -0.8127  0.2896
 3244SOL    HW110324   4.399   2.783   3.320 -0.4597  0.8766  1.8771
 3244SOL    HW210325   4.311   2.662   3.348  1.4525 -0.3407  2.9022
 3245SOL     OW10326   6.095   4.964   2.426  0.2631 -0.4253  0.2503
 3245SOL    HW110327   6.063   5.022   2.357 -0.9379 -0.2677  0.9290
 3245SOL    HW210328   6.119   5.023   2.497  1.7111 -0.5712 -0.0834
 3246SOL     OW10329   4.845   4.028   3.408 -0.0079  0.0744  0.0663
 3246SOL    HW110330   4.834   3.968   3.334 -0.5184 -0.5788  0.6643
 3246SOL    HW210331   4.909   3.984   3.465  0.4503  0.6163 -0.0194
 3247SOL     OW10332   5.303   4.417   0.242  0.3439 -0.5048  0.8252
 3247SOL    HW110333   5.268   4.329   0.257 -1.1543 -0.2109 -0.6687
 3247SOL    HW210334   5.240   4.475   0.285 -0.2794 -0.0473 -0.6385
 3248SOL     OW10335   3.620   0.238   2.974  0.2533 -0.1591  0.1794
 3248SOL    HW110336   3.533   0.199   2.981  0.4454 -0.4718  0.9911
 3248SOL    HW210337   3.643   0.230   2.881 -1.8439  2.7229 -0.7006
 3249SOL     OW10338   4.092   3.182   0.109  0.7207 -0.0833 -0.1295
 3249SOL    HW110339   4.093   3.087   0.124  0.5196 -0.2500 -1.1251
 3249SOL    HW210340   4.061   3.192   0.019 -0.9911  1.0071  0.5474
 3250SOL     OW10341   4.461   5.113   1.475 -0.0014 -0.0433  0.3764
 3250SOL    HW110342   4.496   5.026   1.495  0.2454  0.2706  1.3440
 3250SOL    HW210343   4.375   5.114   1.517  0.4648  0.5766  1.3435
 3251SOL     OW10344   3.614   3.751   3.413 -0.2483 -0.0834 -0.3375
 3251SOL    HW110345   3.605   3.840   3.446 -0.8868 -0.0456 -0.6001
 3251SOL    HW210346   3.604   3.759   3.319 -0.3298 -0.4309 -0.3606
 3252SOL     OW10347   2.903   4.907   3.520  0.1376  0.0617  0.5960
 3252SOL    HW110348   2.852   4.988   3.517 -0.3241 -0.2316  0.3293
 3252SOL    HW210349   2.909   4.886   3.614  0.6001  0.6099  0.6922
 3253SOL     OW10350   4.740   4.946   1.765 -0.2423 -0.2045  0.0383
 3253SOL    HW110351   4.781   4.885   1.825  1.4410 -0.0760 -0.9386
 3253SOL    HW210352   4.801   5.019   1.758 -1.0166  0.3976 -0.8140
 3254SOL     OW10353   5.598   1.058   3.033 -0.5882  0.1861  0.6942
 3254SOL    HW110354   5.577   1.138   2.985 -0.2425  0.3849  0.8733
 3254SOL    HW210355   5.671   1.020   2.983  0.3369  0.8241  1.5233
 3255SOL     OW10356   4.321   4.805   0.743  0.6634  0.1034 -0.0497
 3255SOL    HW110357   4.341   4.723   0.698  0.1403 -0.7415  1.1918
 3255SOL    HW210358   4.225   4.808   0.747  0.6714  0.9049 -0.3110
 3256SOL     OW10359   4.811   5.196   2.456 -0.3717 -0.3821  0.2307
 3256SOL    HW110360   4.725   5.217   2.492  0.1907 -0.6441  1.8161
 3256SOL    HW210361   4.863   5.276   2.472 -0.0053 -0.6448  0.3666
 3257SOL     OW10362   5.056   2.958   2.840  0.0464  0.0214  0.3830
 3257SOL    HW110363   5.111   2.910   2.903 -1.6524  0.4848  2.3139
 3257SOL    HW210364   5.095   3.046   2.837  0.4943 -0.1747  0.3177
 3258SOL     OW10365   6.317   0.955   2.193  0.5365  0.2681 -0.3589
 3258SOL    HW110366   6.323   0.918   2.106  1.7550  0.2756 -0.2902
 3258SOL    HW210367   6.303   1.049   2.178 -2.7396 -0.1351 -0.5320
 3259SOL     OW10368   6.155   5.327   2.942  0.0416  0.9972  0.6381
 3259SOL    HW110369   6.113   5.275   3.011  0.2624 -1.0549 -0.6789
 3259SOL    HW210370   6.086   5.388   2.914 -1.1547 -0.3398  0.5075
 3260SOL     OW10371   4.202   4.545   3.337 -0.8172  0.0821  0.3696
 3260SOL    HW110372   4.225   4.634   3.309 -1.3187 -0.2147 -1.0249
 3260SOL    HW210373   4.267   4.489   3.296 -1.1919 -0.3079  0.3008
 3261SOL     OW10374   4.728   5.163   1.515 -0.4090 -0.1182  0.1649
 3261SOL    HW110375   4.746   5.190   1.605  1.9817 -0.6228 -0.0830
 3261SOL    HW210376   4.633   5.170   1.505 -0.5120  2.0432  2.0354
 3262SOL     OW10377   5.626   4.219   2.996  0.2318  0.3343  0.0836
 3262SOL    HW110378   5.597   4.128   3.001 -1.1129  0.7069 -0.7115
 3262SOL    HW210379   5.720   4.213   2.978 -0.0238 -0.8957 -0.9158
 3263SOL     OW10380   3.936   3.644   2.723 -0.0571 -0.0819 -0.1366
 3263SOL    HW110381   4.012   3.626   2.778 -0.0215  1.7150  0.4732
 3263SOL    HW210382   3.863   3.600   2.767  0.3333 -0.3627  0.2338
 3264SOL     OW10383   6.235   4.869   2.779 -0.0447  0.2217 -0.2587
 3264SOL    HW110384   6.156   4.819   2.760 -1.1310  2.2557 -1.5067
 3264SOL    HW210385   6.254   4.850   2.871 -1.5524 -0.8964 -0.1425
 3265SOL     OW10386   4.154   4.361   3.005 -0.1184  0.0738 -0.3117
 3265SOL    HW110387   4.210   4.345   2.929  1.0054  1.1847  0.2554
 3265SOL    HW210388   4.211   4.401   3.070 -1.3141  0.1663  0.7290
 3266SOL     OW10389   4.366   5.383   3.138 -0.1548 -0.1199 -0.1579
 3266SOL    HW110390   4.318   5.448   3.087 -2.0747 -1.2828  0.0676
 3266SOL    HW210391   4.434   5.434   3.183 -2.3842  2.0270  1.0549
 3267SOL     OW10392   1.826   4.338   3.376  0.6072  0.1306 -0.4202
 3267SOL    HW110393   1.905   4.296   3.410  1.6735  0.4411 -2.4185
 3267SOL    HW210394   1.842   4.431   3.388 -0.9910  0.1814  2.3189
 3268SOL     OW10395   5.463   0.322   0.464  0.2883 -0.3177  0.4820
 3268SOL    HW110396   5.530   0.326   0.395  0.5188 -1.5609  0.6169
 3268SOL    HW210397   5.391   0.274   0.424 -1.6788  3.1030 -0.5463
 3269SOL     OW10398   4.447   5.121   3.086 -0.1349  0.0109  0.1785
 3269SOL    HW110399   4.409   5.205   3.111  0.9946  0.9479 -1.1266
 3269SOL    HW210400   4.538   5.141   3.064 -0.8593 -0.6924 -4.2749
 3270SOL     OW10401   4.997   2.907   2.499 -0.3562  0.5194  0.2436
 3270SOL    HW110402   5.027   2.996   2.517 -2.8252  1.2622  1.1117
 3270SOL    HW210403   4.942   2.884   2.574 -0.0364 -1.6493 -0.1056
 3271SOL     OW10404   4.402   4.740   2.142 -0.2388  0.0631  0.0508
 3271SOL    HW110405   4.416   4.731   2.236 -0.1264  1.3308  0.1759
 3271SOL    HW210406   4.311   4.714   2.129  0.0512 -1.1365  0.3422
 3272SOL     OW10407   6.357   4.024   2.481  0.7141 -0.6742 -0.0850
 3272SOL    HW110408   6.385   4.075   2.405 -0.6453  0.4078  0.0823
 3272SOL    HW210409   6.345   3.935   2.448  0.2710 -0.2441 -1.1177
 3273SOL     OW10410   3.965   5.267   1.848  0.2993 -0.0050  0.3541
 3273SOL    HW110411   3.911   5.289   1.924  0.0418 -0.8980  0.4347
 3273SOL    HW210412   3.921   5.192   1.808  1.2547 -0.4851  0.1781
 3274SOL     OW10413   4.339   2.581   0.279 -0.1922  0.2451  0.1477
 3274SOL    HW110414   4.417   2.636   0.282  1.2852 -1.5439 -1.7659
 3274SOL    HW210415   4.354   2.514   0.346 -1.7142  1.7224  2.0724
 3275SOL     OW10416   5.649   1.942   3.423  0.3759 -0.0678 -0.4386
 3275SOL    HW110417   5.658   1.866   3.480  0.3804  0.5774  0.4359
 3275SOL    HW210418   5.695   2.013   3.469 -1.0813  0.9082 -0.4090
 3276SOL     OW10419   4.758   4.720   1.086  0.1751  0.3035  0.0579
 3276SOL    HW110420   4.705   4.705   1.008 -0.5827 -0.8733  0.7675
 3276SOL    HW210421   4.700   4.769   1.145 -0.7490 -2.2473  1.4198
 3277SOL     OW10422   3.648   0.190   2.717  0.6243  0.4110  0.4969
 3277SOL    HW110423   3.703   0.112   2.710 -0.6149 -0.4330 -0.3005
 3277SOL    HW210424   3.562   0.156   2.742  0.8210  1.8446  3.5720
 3278SOL     OW10425   4.418   2.449   2.845 -0.5554  0.2299  1.1029
 3278SOL    HW110426   4.331   2.489   2.850 -0.9474 -0.0082 -1.9926
 3278SOL    HW210427   4.478   2.522   2.837 -1.1121  0.4692 -2.6778
 3279SOL     OW10428   3.894   5.352   1.246  0.6492 -0.0335  0.3688
 3279SOL    HW110429   3.946   5.275   1.267  0.3709 -0.7485 -1.3823
 3279SOL    HW210430   3.901   5.361   1.151  1.4629  2.7001  0.5980
 3280SOL     OW10431   3.343   4.300   3.305 -0.4207  0.1440 -0.4036
 3280SOL    HW110432   3.282   4.363   3.343 -1.3410 -1.2372  0.5116
 3280SOL    HW210433   3.423   4.310   3.358  0.2730  2.0852 -1.7236
 3281SOL     OW10434   4.863   3.593   3.118 -0.5745 -0.7730 -0.0416
 3281SOL    HW110435   4.880   3.499   3.108 -0.5059 -0.7620 -0.0338
 3281SOL    HW210436   4.919   3.634   3.052 -1.1006 -0.7789 -0.4946
 3282SOL     OW10437   4.583   0.627   3.386  0.4255  0.0727 -0.3298
 3282SOL    HW110438   4.608   0.653   3.297  0.1995  1.2389 -0.0715
 3282SOL    HW210439   4.628   0.689   3.443  0.3922 -0.5284  0.3625
 3283SOL     OW10440   4.943   4.057   0.178  0.0147  0.0385 -0.0973
 3283SOL    HW110441   4.871   4.028   0.234  0.4746 -0.4632  0.2407
 3283SOL    HW210442   4.963   3.981   0.123 -0.5562  0.5834 -1.0803
 3284SOL     OW10443   4.510   4.533   1.328  0.2862  0.0975  0.4677
 3284SOL    HW110444   4.546   4.447   1.352 -1.5337 -0.1327  2.6222
 3284SOL    HW210445   4.567   4.596   1.371 -0.3373 -0.1729  1.7165
 3285SOL     OW10446   4.856   4.533   3.130  0.4805  0.0130  0.0149
 3285SOL    HW110447   4.798   4.482   3.187  0.0776  0.0893 -0.3285
 3285SOL    HW210448   4.932   4.552   3.186 -0.3951  1.0446  0.9052
 3286SOL     OW10449   6.351   5.357   3.421  0.0785 -0.4800 -0.3449
 3286SOL    HW110450   6.318   5.376   3.509  1.2237  2.0245 -0.3728
 3286SOL    HW210451   6.429   5.305   3.436 -1.1116 -2.2643 -0.0551
 3287SOL     OW10452   4.977   4.461   2.609  0.1056  0.1066 -0.2613
 3287SOL    HW110453   5.068   4.434   2.623  0.6369  1.4158 -0.9772
 3287SOL    HW210454   4.940   4.469   2.696  0.7121 -0.3367  0.0440
 3288SOL     OW10455   3.613   4.506   0.405 -0.5377  0.4001  0.3580
 3288SOL    HW110456   3.640   4.456   0.482 -0.1657  2.0059  1.3035
 3288SOL    HW210457   3.640   4.596   0.424 -1.6900  1.0775 -1.0562
 3289SOL     OW10458   4.135   4.279   1.539 -0.7551  0.3570  0.2616
 3289SOL    HW110459   4.182   4.349   1.494  0.2982 -0.4210  0.1210
 3289SOL    HW210460   4.083   4.237   1.470 -0.6916  0.4352  0.1658
 3290SOL     OW10461   5.710   5.324   3.138 -0.0587 -0.1451 -0.1144
 3290SOL    HW110462   5.804   5.306   3.152  0.5570  2.1292 -0.8503
 3290SOL    HW210463   5.683   5.370   3.217 -0.4067 -0.2486 -0.1710
 3291SOL     OW10464   3.423   4.112   2.463 -0.3491 -0.0808  0.0098
 3291SOL    HW110465   3.348   4.063   2.496 -0.6452  0.8583  0.7822
 3291SOL    HW210466   3.489   4.104   2.532  0.9687 -2.3753 -1.4055
 3292SOL     OW10467   3.413   5.295   0.902  0.4711  0.4384  0.4594
 3292SOL    HW110468   3.442   5.386   0.912 -0.8009  0.7343  1.8709
 3292SOL    HW210469   3.324   5.302   0.868  0.4556 -0.2883  0.3409
 3293SOL     OW10470   5.820   5.386   2.866 -0.3616 -0.1199  0.0409
 3293SOL    HW110471   5.860   5.454   2.920  0.4881 -0.7419  0.2166
 3293SOL    HW210472   5.726   5.394   2.883 -0.1177 -0.3750  1.7297
 3294SOL     OW10473   3.540   5.100   3.380 -0.5257  0.3052  0.0049
 3294SOL    HW110474   3.571   5.061   3.462 -0.4420  0.4561  0.0458
 3294SOL    HW210475   3.445   5.100   3.387 -0.5207  0.2476  0.0701
 3295SOL     OW10476   6.173   5.249   0.142  0.0801 -0.3593  0.3731
 3295SOL    HW110477   6.154   5.226   0.051 -2.0014  0.3302  0.5861
 3295SOL    HW210478   6.219   5.333   0.136 -0.9620  0.1969 -0.0214
 3296SOL     OW10479   5.424   3.619   0.491  0.1800 -0.0573  0.5848
 3296SOL    HW110480   5.413   3.714   0.494  1.0166  0.0368  1.0029
 3296SOL    HW210481   5.356   3.589   0.431  1.9201  1.1436 -2.2660
 3297SOL     OW10482   4.615   0.389   0.973  0.2403  0.4337  0.0513
 3297SOL    HW110483   4.694   0.339   0.996  0.1542  0.1808 -0.2006
 3297SOL    HW210484   4.555   0.372   1.046 -1.4767 -3.4541 -2.0036
 3298SOL     OW10485   5.175   3.706   3.347  0.0155  0.3501 -0.1061
 3298SOL    HW110486   5.218   3.734   3.266  0.2489  1.0959  0.2640
 3298SOL    HW210487   5.233   3.639   3.382 -0.4236 -0.4461 -0.8836
 3299SOL     OW10488   5.466   2.568   2.043 -0.1443  0.0728 -0.3108
 3299SOL    HW110489   5.454   2.653   2.086 -0.7684  0.6856 -1.6384
 3299SOL    HW210490   5.387   2.556   1.992  0.8005 -0.3382 -1.7452
 3300SOL     OW10491   5.842   4.591   1.665 -0.3565  1.0609  0.5336
 3300SOL    HW110492   5.910   4.593   1.598 -1.1985  0.5629 -0.3718
 3300SOL    HW210493   5.761   4.609   1.617 -1.3009 -1.6055  0.9571
 3301SOL     OW10494   4.153   0.347   0.031  0.4265 -0.7512  0.0902
 3301SOL    HW110495   4.131   0.378   0.119  1.1782  0.1957 -0.0394
 3301SOL    HW210496   4.098   0.269   0.018 -1.2114  0.2802  0.5919
 3302SOL     OW10497   5.007   2.196   2.258 -0.1242 -0.0413  0.3916
 3302SOL    HW110498   5.062   2.137   2.309  0.0466  1.3257  1.8439
 3302SOL    HW210499   5.037   2.185   2.168  0.6935 -1.2847  0.7953
 3303SOL     OW10500   5.389   3.536   3.424 -0.0254 -0.4608 -0.4469
 3303SOL    HW110501   5.475   3.497   3.409  0.5977  0.0118  1.5948
 3303SOL    HW210502   5.327   3.465   3.408  0.8040 -1.0952 -0.9228
 3304SOL     OW10503   4.110   3.401   2.323 -0.4232  0.0501 -0.0054
 3304SOL    HW110504   4.064   3.477   2.289 -1.2002 -0.7218 -0.7402
 3304SOL    HW210505   4.141   3.428   2.410 -2.2257  0.6282  0.5121
 3305SOL     OW10506   5.168   0.224   1.221 -0.2418  0.2678  0.1740
 3305SOL    HW110507   5.099   0.184   1.273 -2.2302  1.0895 -1.7121
 3305SOL    HW210508   5.144   0.317   1.215  0.6195  0.4413 -1.1017
 3306SOL     OW10509   7.309   1.287   2.925 -0.1256 -0.1277  0.1027
 3306SOL    HW110510   7.301   1.284   3.020 -1.2979  1.0545  0.0594
 3306SOL    HW210511   7.381   1.347   2.908 -1.0532  1.0556  0.2345
 3307SOL     OW10512   6.105   0.859   1.746  0.0735 -0.3620 -0.0039
 3307SOL    HW110513   6.129   0.771   1.718  1.4392 -0.1622  0.4945
 3307SOL    HW210514   6.122   0.861   1.840 -1.4492 -0.0341  0.3008
 3308SOL     OW10515   5.607   1.141   1.571  0.3629  0.1079  0.0895
 3308SOL    HW110516   5.647   1.130   1.657  1.7308 -0.9484 -0.6305
 3308SOL    HW210517   5.625   1.232   1.548  1.9524 -0.1883  0.0245
 3309SOL     OW10518   0.016   1.426   2.872 -0.4949 -0.0341  0.7142
 3309SOL    HW110519   0.094   1.381   2.840 -0.7525  0.8406 -1.3335
 3309SOL    HW210520   0.039   1.519   2.872 -1.2034  0.1517  1.0366
 3310SOL     OW10521   6.813   5.262   1.689 -0.6321  0.0855  0.0720
 3310SOL    HW110522   6.852   5.186   1.731 -3.0257 -1.4632 -0.3049
 3310SOL    HW210523   6.753   5.298   1.754 -0.5167  0.8321 -0.2231
 3311SOL     OW10524   0.145   0.767   2.787 -0.2869 -0.7794 -0.2956
 3311SOL    HW110525   0.220   0.800   2.737 -0.1520 -1.5659 -0.6203
 3311SOL    HW210526   0.148   0.672   2.775 -0.0499 -1.0340  1.4884
 3312SOL     OW10527   5.882   1.277   0.840  0.1934 -0.4831 -0.1191
 3312SOL    HW110528   5.944   1.347   0.859 -0.9683  0.5184  0.1538
 3312SOL    HW210529   5.805   1.322   0.806 -0.1106 -1.7549 -1.2100
 3313SOL     OW10530   7.036   0.772   2.269  0.4281 -0.4714  0.1000
 3313SOL    HW110531   7.112   0.741   2.317  2.1127 -0.3197 -2.2698
 3313SOL    HW210532   7.044   0.732   2.182 -2.1377 -0.3143 -0.3068
 3314SOL     OW10533   6.040   4.946   0.113  0.2679 -0.6676  0.1614
 3314SOL    HW110534   6.070   5.036   0.104 -0.0823 -0.5811 -0.1428
 3314SOL    HW210535   6.068   4.920   0.201  0.8570 -0.4490  0.0428
 3315SOL     OW10536   6.357   1.132   0.350  0.9492  0.4443 -0.0354
 3315SOL    HW110537   6.277   1.108   0.396  0.3312  0.6855 -0.9430
 3315SOL    HW210538   6.327   1.158   0.262  2.1343 -0.5238 -0.7525
 3316SOL     OW10539   6.273   2.480   1.409 -0.5989 -0.0155 -0.6591
 3316SOL    HW110540   6.263   2.393   1.370  1.6028 -0.2946 -0.7152
 3316SOL    HW210541   6.345   2.520   1.360 -0.5145  1.2223  0.4293
 3317SOL     OW10542   6.891   4.961   3.217 -0.3330 -0.4833 -0.1686
 3317SOL    HW110543   6.890   5.055   3.200 -1.2708 -0.6906 -1.3631
 3317SOL    HW210544   6.931   4.922   3.139 -1.4708 -1.1876 -0.4246
 3318SOL     OW10545   7.009   0.392   0.470  0.4635 -0.0114 -0.3338
 3318SOL    HW110546   7.026   0.464   0.409 -0.5150  1.4968  1.0765
 3318SOL    HW210547   6.981   0.319   0.415 -1.5035  1.6309 -1.6614
 3319SOL     OW10548   6.384   1.651   1.854  0.5039  0.1567  0.1047
 3319SOL    HW110549   6.330   1.640   1.932  1.9743 -1.4235  0.9934
 3319SOL    HW210550   6.355   1.581   1.795  1.4854 -0.6813  0.5754
 3320SOL     OW10551   6.203   0.434   0.752 -0.1690  0.1181 -0.7818
 3320SOL    HW110552   6.214   0.529   0.753 -2.2990  0.4088 -1.1265
 3320SOL    HW210553   6.210   0.410   0.659 -0.2516  0.0293 -0.7656
 3321SOL     OW10554   4.438   1.111   0.303  0.1562  0.5913  0.3463
 3321SOL    HW110555   4.490   1.065   0.237  0.5192  0.9216  0.3961
 3321SOL    HW210556   4.364   1.148   0.254  1.1760  2.0473 -0.1542
 3322SOL     OW10557   6.563   2.117   1.279  0.0709  0.0445 -0.4873
 3322SOL    HW110558   6.525   2.179   1.216  0.8193  0.8734 -0.1597
 3322SOL    HW210559   6.570   2.167   1.360 -0.6798 -0.9514  0.2062
 3323SOL     OW10560   6.720   2.114   2.893 -0.3580 -0.2661  0.1989
 3323SOL    HW110561   6.803   2.151   2.923 -0.3332  0.0094 -0.1974
 3323SOL    HW210562   6.654   2.178   2.921 -0.4635 -0.6042  0.7272
 3324SOL     OW10563   6.277   1.539   3.179  0.3716  0.0407 -0.2138
 3324SOL    HW110564   6.247   1.628   3.163 -3.7948 -0.6841  2.0687
 3324SOL    HW210565   6.349   1.526   3.117  0.0282  4.3142 -1.8438
 3325SOL     OW10566   6.842   1.278   1.343  0.0788 -0.2334 -0.3608
 3325SOL    HW110567   6.766   1.329   1.316  0.3107  1.0297  1.2354
 3325SOL    HW210568   6.835   1.273   1.438  1.4739 -0.9568 -0.2711
 3326SOL     OW10569   7.434   1.244   3.410 -0.3594 -0.6309  0.2076
 3326SOL    HW110570   7.392   1.329   3.421  1.6461  0.5031 -0.3968
 3326SOL    HW210571   7.489   1.235   3.488  0.9605 -0.4126 -0.6667
 3327SOL     OW10572   1.114   1.354   3.473 -0.0316 -0.6431 -0.0448
 3327SOL    HW110573   1.170   1.304   3.533  1.9246  1.0766 -0.3267
 3327SOL    HW210574   1.116   1.306   3.391  1.4298 -0.4001 -0.1685
 3328SOL     OW10575   5.266   1.755   2.354  0.0266 -0.0265 -0.0204
 3328SOL    HW110576   5.208   1.702   2.300 -0.1169  0.1664 -0.0562
 3328SOL    HW210577   5.354   1.739   2.318  0.3031 -1.9687  1.3520
 3329SOL     OW10578   0.474   0.207   0.134 -1.0098  0.0870 -0.2104
 3329SOL    HW110579   0.552   0.240   0.179  0.0350  0.4366 -2.1611
 3329SOL    HW210580   0.407   0.273   0.148 -0.4863  0.5351  0.2073
 3330SOL     OW10581   0.731   1.869   3.091 -0.5009 -0.3028 -0.2039
 3330SOL    HW110582   0.679   1.816   3.030 -0.7534  1.4491 -1.5945
 3330SOL    HW210583   0.668   1.931   3.128  0.1430  0.2601 -0.0407
 3331SOL     OW10584   5.896   0.439   1.790  0.0070  0.0127  0.3648
 3331SOL    HW110585   5.862   0.384   1.860  1.9431 -0.6663  0.8406
 3331SOL    HW210586   5.889   0.528   1.823 -1.1739 -0.0932  0.4600
 3332SOL     OW10587   5.935   2.718   1.207 -0.1492  0.2273  0.4977
 3332SOL    HW110588   5.927   2.643   1.148  2.9853  0.7247 -0.7848
 3332SOL    HW210589   5.970   2.681   1.288 -2.4157 -0.1544  1.3731
 3333SOL     OW10590   0.029   1.510   0.084  0.4158  0.3627  0.3194
 3333SOL    HW110591   0.068   1.499  -0.003  1.7140 -0.1824  0.9458
 3333SOL    HW210592   0.046   1.601   0.106  1.4867  0.0859  0.6530
 3334SOL     OW10593   6.576   1.279   0.049 -0.0509  0.5961 -0.1454
 3334SOL    HW110594   6.548   1.190   0.028 -2.5494  1.3945 -0.4637
 3334SOL    HW210595   6.524   1.303   0.125  0.5305  1.8273 -0.1114
 3335SOL     OW10596   5.879   0.962   1.603 -0.5118  0.0975  0.4116
 3335SOL    HW110597   5.822   1.012   1.661 -0.2870 -0.2151  0.9127
 3335SOL    HW210598   5.941   0.919   1.662  0.3511  0.5640 -0.1350
 3336SOL     OW10599   6.517   1.845   0.426 -0.2566 -0.7496  0.2635
 3336SOL    HW110600   6.579   1.901   0.378  0.0678  0.0972  1.6199
 3336SOL    HW210601   6.530   1.758   0.389 -0.8778  0.0611 -2.0084
 3337SOL     OW10602   0.094   1.050   1.089  0.4979 -0.3292 -0.5285
 3337SOL    HW110603   0.015   1.042   1.037 -0.1880  1.3601  0.1989
 3337SOL    HW210604   0.099   1.143   1.113  1.4135 -0.8090  1.3902
 3338SOL     OW10605   7.198   0.251   1.714 -0.2977  0.4637  0.3921
 3338SOL    HW110606   7.214   0.170   1.666 -2.3104 -0.3598  0.9826
 3338SOL    HW210607   7.184   0.317   1.646  0.0981  0.0438 -0.1073
 3339SOL     OW10608   0.307   0.931   0.965 -0.1059 -0.2750 -0.1500
 3339SOL    HW110609   0.227   0.971   0.999  0.5309  0.8994  0.0117
 3339SOL    HW210610   0.279   0.889   0.883 -0.3031  3.0104 -1.9321
 3340SOL     OW10611   7.352   2.603   0.892  0.2807 -0.1725  0.4666
 3340SOL    HW110612   7.323   2.513   0.879  1.3341 -0.4222 -0.2523
 3340SOL    HW210613   7.299   2.655   0.831  0.1509 -0.3972  0.3891
 3341SOL     OW10614   5.587   1.423   2.072 -0.6014 -0.2927 -0.1140
 3341SOL    HW110615   5.633   1.470   2.003 -1.0798 -0.4943 -0.5714
 3341SOL    HW210616   5.505   1.470   2.084  0.5944  1.4165  2.2448
 3342SOL     OW10617   7.264   0.837   2.976 -0.2572  0.0585 -0.1636
 3342SOL    HW110618   7.217   0.915   3.004 -2.2923 -2.2027  3.5527
 3342SOL    HW210619   7.354   0.851   3.006  0.1202  1.9077 -1.9086
 3343SOL     OW10620   7.311   1.421   0.239  0.0357  0.6434 -0.0249
 3343SOL    HW110621   7.296   1.328   0.219 -0.9721  1.4109 -3.4936
 3343SOL    HW210622   7.393   1.441   0.194 -0.2192  1.6357 -0.0543
 3344SOL     OW10623   6.765   0.978   0.759  0.1288  0.0663  0.5062
 3344SOL    HW110624   6.679   0.948   0.790  0.4632 -0.9106  0.5185
 3344SOL    HW210625   6.826   0.948   0.826  0.6494 -0.5121 -0.2155
 3345SOL     OW10626   6.906   0.495   3.312  0.1663 -1.0080 -0.3786
 3345SOL    HW110627   6.998   0.502   3.338 -0.3423  1.4980  1.0726
 3345SOL    HW210628   6.858   0.486   3.394 -1.0243 -0.2386 -0.9559
 3346SOL     OW10629   7.174   1.368   1.139  0.4288  0.6548  0.0349
 3346SOL    HW110630   7.126   1.331   1.065  1.2847 -0.7814  0.1494
 3346SOL    HW210631   7.250   1.411   1.099  1.0325 -0.3465  0.0474
 3347SOL     OW10632   7.088   0.017   0.727 -0.0371 -0.0971 -0.3640
 3347SOL    HW110633   7.101   0.056   0.813 -0.3525  0.2642 -0.4744
 3347SOL    HW210634   7.097   0.090   0.666 -1.2864 -0.0487 -0.5278
 3348SOL     OW10635   5.449   1.019   3.313  0.4306 -0.3255  0.5109
 3348SOL    HW110636   5.473   1.107   3.343  1.7161 -0.9280  1.3407
 3348SOL    HW210637   5.472   1.019   3.220  0.4038  0.2265  0.5002
 3349SOL     OW10638   6.791   1.461   3.244 -0.5321 -0.1274  0.3396
 3349SOL    HW110639   6.728   1.530   3.266 -0.6793 -0.4606  0.9688
 3349SOL    HW210640   6.739   1.382   3.238 -0.1189 -0.4810  1.2803
 3350SOL     OW10641   5.747   1.922   1.725 -0.4641  0.0997 -0.0886
 3350SOL    HW110642   5.692   1.879   1.659  0.6869 -1.7964  0.1427
 3350SOL    HW210643   5.718   1.885   1.808  1.7306 -1.6505 -0.0370
 3351SOL     OW10644   5.720   5.101   2.974  0.2940  0.4717 -0.1480
 3351SOL    HW110645   5.647   5.059   3.019  0.8703 -0.7156 -0.2898
 3351SOL    HW210646   5.719   5.191   3.007  0.5294 -0.2693  2.0671
 3352SOL     OW10647   6.805   5.439   0.158 -0.0198  0.3162 -0.8215
 3352SOL    HW110648   6.764   5.354   0.175 -1.4151  0.8683 -1.2832
 3352SOL    HW210649   6.733   5.495   0.129  0.6090  2.0435  0.7253
 3353SOL     OW10650   1.022   1.617   0.005 -0.2964 -0.2063 -0.1615
 3353SOL    HW110651   1.111   1.643   0.028 -0.1260 -1.4328  0.6624
 3353SOL    HW210652   1.028   1.523  -0.014 -1.9181 -1.1180  3.1127
 3354SOL     OW10653   5.565   5.413   2.458 -0.0569  0.2408 -0.2934
 3354SOL    HW110654   5.641   5.441   2.407  1.8736 -1.2524  1.5184
 3354SOL    HW210655   5.559   5.319   2.441 -0.1126 -0.0566  1.2284
 3355SOL     OW10656   7.058   1.504   3.162 -0.4539  0.3454  0.5203
 3355SOL    HW110657   6.981   1.458   3.195 -1.3867  1.9107  0.5720
 3355SOL    HW210658   7.042   1.514   3.068  1.0289 -1.8227 -0.0500
 3356SOL     OW10659   7.076   2.317   1.282 -0.0749  0.0683 -0.4641
 3356SOL    HW110660   7.041   2.242   1.329 -1.2903  0.6552 -0.3932
 3356SOL    HW210661   7.125   2.280   1.209 -0.8723 -0.7771 -0.5725
 3357SOL     OW10662   7.338   0.374   2.122  0.5632 -0.7259  0.4136
 3357SOL    HW110663   7.401   0.378   2.050  0.3208 -1.1626  0.1758
 3357SOL    HW210664   7.388   0.341   2.197  0.8757 -0.0353  0.5213
 3358SOL     OW10665   6.488   1.356   1.025  0.1143 -0.6066 -0.2812
 3358SOL    HW110666   6.494   1.410   0.947  2.2638 -0.1814  0.1115
 3358SOL    HW210667   6.436   1.280   0.998 -0.4600  0.2437 -1.6662
 3359SOL     OW10668   6.582   1.725   1.313  0.0989 -0.2589 -0.1284
 3359SOL    HW110669   6.615   1.649   1.361 -1.4250 -1.5766 -1.0566
 3359SOL    HW210670   6.655   1.753   1.258  0.9860 -0.4324  0.9421
 3360SOL     OW10671   6.995   1.107   3.466 -0.3121  0.1286 -0.1618
 3360SOL    HW110672   6.917   1.132   3.516 -0.7453  0.3122 -0.9182
 3360SOL    HW210673   7.055   1.070   3.531 -1.1072 -0.1908  0.3980
 3361SOL     OW10674   6.117   5.119   2.681 -0.4597  0.7218  0.6353
 3361SOL    HW110675   6.105   5.041   2.735  0.0979  0.0417 -0.1797
 3361SOL    HW210676   6.197   5.159   2.714 -0.1762  0.3633  0.3963
 3362SOL     OW10677   7.450   2.546   0.536 -0.3832 -0.3105  0.1602
 3362SOL    HW110678   7.529   2.584   0.574 -0.3737  0.7434 -0.8495
 3362SOL    HW210679   7.387   2.618   0.536 -1.0283 -0.8722  0.0622
 3363SOL     OW10680   5.920   0.660   1.397 -0.0288 -0.0102 -0.1653
 3363SOL    HW110681   5.983   0.637   1.329  0.6718  0.9684  0.1315
 3363SOL    HW210682   5.837   0.674   1.351  0.1340 -0.5979 -0.6461
 3364SOL     OW10683   0.169   1.741   0.109  0.3733 -0.4272 -0.3801
 3364SOL    HW110684   0.160   1.816   0.168 -0.1088  0.0839 -1.0945
 3364SOL    HW210685   0.187   1.779   0.024  0.2738 -1.1316 -0.7215
 3365SOL     OW10686   0.918   1.598   0.369 -0.0872 -0.4831 -0.6444
 3365SOL    HW110687   0.872   1.643   0.298 -0.6926 -0.9873 -0.5778
 3365SOL    HW210688   0.851   1.543   0.410  0.4191 -0.7114 -0.1149
 3366SOL     OW10689   6.799   4.299   2.811 -0.0227  0.2162 -0.2280
 3366SOL    HW110690   6.763   4.290   2.899  0.3064  0.8523 -0.0225
 3366SOL    HW210691   6.727   4.274   2.753 -1.2727  2.6510  0.1214
 3367SOL     OW10692   6.684   2.186   0.507  0.1073 -0.5440 -0.1012
 3367SOL    HW110693   6.634   2.266   0.491  0.3547 -0.3770 -0.0504
 3367SOL    HW210694   6.677   2.136   0.426  2.0495  0.6642 -1.1017
 3368SOL     OW10695   5.815   0.214   0.053 -0.3841 -0.4641 -0.1837
 3368SOL    HW110696   5.909   0.200   0.049 -0.2893 -0.1763  0.7667
 3368SOL    HW210697   5.791   0.193   0.143 -1.1901 -0.2712 -0.3398
 3369SOL     OW10698   7.031   0.181   0.949  0.4455  0.5148 -0.2684
 3369SOL    HW110699   6.987   0.097   0.967 -0.3235  1.4402  2.8921
 3369SOL    HW210700   6.961   0.245   0.944  1.0603  1.0877 -2.1147
 3370SOL     OW10701   5.967   0.217   2.458 -0.5655 -0.1090  0.8119
 3370SOL    HW110702   6.034   0.205   2.525 -0.6987  1.2585  1.2294
 3370SOL    HW210703   5.894   0.259   2.504 -0.9841  0.0846 -0.0058
 3371SOL     OW10704   6.165   0.217   0.884  0.0074  0.0154  0.0957
 3371SOL    HW110705   6.071   0.199   0.873 -0.0500 -0.1847  0.8607
 3371SOL    HW210706   6.176   0.305   0.849 -0.1509 -0.5655 -1.5229
 3372SOL     OW10707   5.776   2.573   2.038  0.0079 -0.0982  0.6477
 3372SOL    HW110708   5.682   2.560   2.043 -0.0495  0.0182 -0.1308
 3372SOL    HW210709   5.793   2.598   1.948  0.6176  1.2307  1.1085
 3373SOL     OW10710   6.668   1.536   1.486 -0.2532  0.0553 -0.0249
 3373SOL    HW110711   6.644   1.449   1.455  1.7270 -0.7170  0.4312
 3373SOL    HW210712   6.656   1.532   1.581  2.2106 -0.6352  0.3318
 3374SOL     OW10713   6.258   1.641   0.842  0.2008  0.1951  0.1107
 3374SOL    HW110714   6.232   1.733   0.846  0.5418  0.2915  0.1426
 3374SOL    HW210715   6.175   1.592   0.848 -0.0500  0.5063 -0.7185
 3375SOL     OW10716   6.312   0.660   0.280  0.1222  0.4705  0.3368
 3375SOL    HW110717   6.405   0.664   0.303  0.1938  0.1230  0.1190
 3375SOL    HW210718   6.309   0.687   0.188  0.1239 -0.4340  0.0665
 3376SOL     OW10719   6.942   4.630   0.511  0.0588 -0.0666  0.2351
 3376SOL    HW110720   7.020   4.582   0.484 -0.1630  0.0046 -0.5589
 3376SOL    HW210721   6.876   4.562   0.527 -0.5014 -0.0367 -1.6750
 3377SOL     OW10722   0.742   0.880   3.413 -0.2493 -0.0871 -0.2276
 3377SOL    HW110723   0.786   0.933   3.347  0.9275 -0.9119 -0.1354
 3377SOL    HW210724   0.754   0.928   3.495  1.5840 -0.8835  0.0107
 3378SOL     OW10725   4.085   4.472   0.312  0.1956  0.2517  0.6284
 3378SOL    HW110726   4.085   4.426   0.396 -1.0133  0.4349  0.7458
 3378SOL    HW210727   3.993   4.495   0.297  0.4157  0.3383 -0.6861
 3379SOL     OW10728   5.888   0.041   0.966  0.4417 -0.3329  0.2997
 3379SOL    HW110729   5.952   0.023   1.035  1.2607  0.4359 -0.2275
 3379SOL    HW210730   5.933   0.016   0.885  0.2386  0.5767 -0.1105
 3380SOL     OW10731   6.547   0.453   1.439 -0.0705 -0.2979  0.8723
 3380SOL    HW110732   6.477   0.501   1.482 -1.1035 -1.4066  0.4687
 3380SOL    HW210733   6.589   0.518   1.382 -2.0806 -0.0522 -0.4462
 3381SOL     OW10734   0.640   2.205   1.561 -0.0640 -0.3833 -0.2555
 3381SOL    HW110735   0.654   2.253   1.642 -0.9258  1.2283 -1.0166
 3381SOL    HW210736   0.548   2.177   1.564 -0.1471 -0.1745 -0.7489
 3382SOL     OW10737   7.159   2.934   0.376  0.0003 -0.2050 -0.0964
 3382SOL    HW110738   7.074   2.969   0.352 -0.7626 -1.7921  0.1785
 3382SOL    HW210739   7.194   2.996   0.439 -0.4777  1.0029 -0.9944
 3383SOL     OW10740   7.074   1.186   2.761  0.2317 -0.1215  0.3763
 3383SOL    HW110741   7.161   1.204   2.797  0.0720  1.0133  0.2271
 3383SOL    HW210742   7.091   1.131   2.685  0.5591 -2.8215  2.2683
 3384SOL     OW10743   7.286   1.218   0.609  0.6417 -0.0018  0.0827
 3384SOL    HW110744   7.204   1.246   0.649 -0.8260 -0.0631 -2.6397
 3384SOL    HW210745   7.297   1.127   0.636 -0.2510 -0.0238  0.3742
 3385SOL     OW10746   5.621   0.629   0.954  0.1692  0.0212  0.4174
 3385SOL    HW110747   5.558   0.655   0.887  0.3734 -1.2875 -0.3230
 3385SOL    HW210748   5.576   0.561   1.005  0.1965  0.6493  1.3038
 3386SOL     OW10749   5.630   4.482   1.355  0.5379 -0.1067  0.0099
 3386SOL    HW110750   5.676   4.557   1.318  0.4069  0.2594  0.5713
 3386SOL    HW210751   5.546   4.518   1.383  0.5491 -0.4185  0.4514
 3387SOL     OW10752   6.544   1.344   0.428  0.4353 -0.0722 -0.4022
 3387SOL    HW110753   6.592   1.292   0.492 -0.0540 -0.6513 -0.4910
 3387SOL    HW210754   6.477   1.284   0.395  0.5783  0.2675 -1.3363
 3388SOL     OW10755   6.533   0.096   3.281 -0.1027  0.3620  0.0879
 3388SOL    HW110756   6.478   0.028   3.320 -1.1062  0.6031 -0.8610
 3388SOL    HW210757   6.484   0.177   3.297  0.0777  0.6047 -0.5821
 3389SOL     OW10758   6.513   2.244   0.087  0.2252  0.2536  0.0068
 3389SOL    HW110759   6.607   2.252   0.103  0.2582  0.5942 -0.3402
 3389SOL    HW210760   6.489   2.325   0.042 -0.4399  0.6361  1.0181
 3390SOL     OW10761   0.104   5.062   2.980 -0.8010  0.0740  0.2456
 3390SOL    HW110762   0.188   5.027   2.950 -1.3972 -0.9829 -0.2424
 3390SOL    HW210763   0.127   5.116   3.055  0.2429 -0.9087  0.6787
 3391SOL     OW10764   7.241   1.460   2.577 -0.0882 -0.2265  0.4718
 3391SOL    HW110765   7.234   1.380   2.524 -0.5695  1.3605 -2.0178
 3391SOL    HW210766   7.334   1.469   2.594  0.1326 -0.5425 -0.5163
 3392SOL     OW10767   5.349   2.671   3.388  0.0173  0.0542  0.0837
 3392SOL    HW110768   5.393   2.662   3.303  1.7393 -1.0778  1.0390
 3392SOL    HW210769   5.291   2.596   3.393 -0.0335  0.0829 -0.0638
 3393SOL     OW10770   5.851   1.495   0.618 -0.1593  0.6112 -0.5390
 3393SOL    HW110771   5.762   1.460   0.619 -0.0818  0.3515  1.4750
 3393SOL    HW210772   5.900   1.435   0.562 -1.0839  0.3355 -1.0712
 3394SOL     OW10773   0.023   1.521   2.063  0.0437  0.2876 -0.4634
 3394SOL    HW110774  -0.043   1.563   2.119 -0.6268 -1.3246  0.0112
 3394SOL    HW210775   0.018   1.429   2.086  2.6358  0.1363 -0.2713
 3395SOL     OW10776   5.980   0.210   0.397  0.0797 -0.5700  0.6175
 3395SOL    HW110777   5.954   0.280   0.457 -1.6604 -0.9834  0.3887
 3395SOL    HW210778   5.898   0.167   0.373  0.7884 -0.7778 -1.6367
 3396SOL     OW10779   6.734   1.520   0.890 -0.2817  0.1367 -0.1138
 3396SOL    HW110780   6.656   1.506   0.837 -1.3746  1.2967  1.1068
 3396SOL    HW210781   6.771   1.603   0.858  0.1133 -0.1057 -0.2925
 3397SOL     OW10782   5.625   3.125   1.068 -0.2830  0.1718  0.1282
 3397SOL    HW110783   5.704   3.070   1.068 -1.0697 -1.1317  2.6559
 3397SOL    HW210784   5.566   3.081   1.006  0.1400 -0.1786 -0.0366
 3398SOL     OW10785   5.620   2.843   0.849 -0.0089  0.1084  0.1732
 3398SOL    HW110786   5.550   2.906   0.832 -0.2080  0.0633  0.8130
 3398SOL    HW210787   5.694   2.874   0.795  0.3173  1.6200  1.4200
 3399SOL     OW10788   7.231   1.604   0.416 -0.3037  0.5994 -0.7115
 3399SOL    HW110789   7.247   1.682   0.363  1.5404  0.4282 -0.4876
 3399SOL    HW210790   7.253   1.531   0.358 -1.3656  0.2528 -0.7024
 3400SOL     OW10791   0.307   1.235   3.548  0.1163  0.2135  0.1093
 3400SOL    HW110792   0.274   1.228   3.458  0.3201  0.8210 -0.0230
 3400SOL    HW210793   0.301   1.147   3.583  0.5046 -0.1322 -0.6700
 3401SOL     OW10794   6.368   4.174   0.847 -0.4130  0.2884 -0.6357
 3401SOL    HW110795   6.294   4.236   0.848 -0.3100  0.4081  0.1626
 3401SOL    HW210796   6.380   4.153   0.754 -1.7118 -0.0443 -0.7563
 3402SOL     OW10797   5.756   0.378   0.799  0.1165  0.3613 -0.4488
 3402SOL    HW110798   5.823   0.378   0.730  1.2590  0.7415  0.6133
 3402SOL    HW210799   5.709   0.296   0.788  0.0717  0.5600 -1.8656
 3403SOL     OW10800   5.824   0.846   3.036  0.1426  0.0610 -0.2032
 3403SOL    HW110801   5.813   0.879   3.125  0.1740  0.1797 -0.2435
 3403SOL    HW210802   5.889   0.776   3.044 -2.6105 -2.6533  0.5406
 3404SOL     OW10803   7.054   0.214   1.237 -0.3400 -0.0419  0.2033
 3404SOL    HW110804   7.106   0.293   1.223  2.1486 -1.6844 -0.2958
 3404SOL    HW210805   7.058   0.167   1.154 -0.3741 -1.4917  0.9961
 3405SOL     OW10806   6.933   1.126   1.147  0.0183  1.3125 -0.1057
 3405SOL    HW110807   6.901   1.173   1.224 -1.1900  0.0803  0.1843
 3405SOL    HW210808   7.023   1.103   1.167 -0.1493  1.3866  0.7549
 3406SOL     OW10809   5.690   1.535   0.364  0.8233 -0.0210  0.3723
 3406SOL    HW110810   5.650   1.575   0.442  0.4540 -0.2558  0.3056
 3406SOL    HW210811   5.765   1.591   0.344  0.7661  0.1906  0.7435
 3407SOL     OW10812   7.172   0.450   1.504 -0.2985  0.0405  0.2309
 3407SOL    HW110813   7.254   0.500   1.507 -0.2695 -0.0482  1.5258
 3407SOL    HW210814   7.111   0.507   1.457  0.2485  0.4978  0.0627
 3408SOL     OW10815   7.089   2.064   3.381 -0.2415 -0.1546  0.4240
 3408SOL    HW110816   7.005   2.037   3.420  0.0352 -0.9323  0.4928
 3408SOL    HW210817   7.071   2.067   3.287  0.2359 -2.6200  0.1850
 3409SOL     OW10818   7.216   1.071   1.534 -0.3150  0.4486  0.3824
 3409SOL    HW110819   7.171   1.094   1.615  1.1020  1.0491  1.0452
 3409SOL    HW210820   7.266   0.992   1.556  2.4278  2.2328  1.0929
 3410SOL     OW10821   7.298   0.915   1.120 -0.3220  0.1854  0.1780
 3410SOL    HW110822   7.292   0.956   1.033  1.0549  1.4772  0.6600
 3410SOL    HW210823   7.268   0.982   1.180 -1.7173 -0.8692  0.7031
 3411SOL     OW10824   6.999   1.256   0.454  0.2514 -0.1648  0.3287
 3411SOL    HW110825   7.013   1.342   0.493 -1.1320 -0.5866  1.8673
 3411SOL    HW210826   6.983   1.274   0.362 -0.8452  1.3309  0.7723
 3412SOL     OW10827   7.063   1.195   0.767  0.0742 -0.1108  0.2129
 3412SOL    HW110828   7.037   1.261   0.832 -1.7560 -0.0803 -0.4890
 3412SOL    HW210829   6.986   1.140   0.757  1.5917 -2.4907  0.8603
 3413SOL     OW10830   6.326   1.250   0.757  0.0745  0.0740 -0.1756
 3413SOL    HW110831   6.283   1.179   0.805  0.0019  0.5212  0.4241
 3413SOL    HW210832   6.280   1.252   0.673 -0.4085 -0.1219  0.0754
 3414SOL     OW10833   6.623   0.210   1.316 -0.1782 -0.2703  0.6296
 3414SOL    HW110834   6.603   0.288   1.369  1.2268  0.3537  0.2898
 3414SOL    HW210835   6.710   0.184   1.343  0.3653 -0.2496 -0.9815
 3415SOL     OW10836   0.500   1.439   0.787  0.1276  0.3483 -0.2813
 3415SOL    HW110837   0.451   1.364   0.822 -0.5814  0.7986 -0.2875
 3415SOL    HW210838   0.529   1.410   0.700 -0.4172  0.1865 -0.4172
 3416SOL     OW10839   6.494   1.026   1.251 -0.4609 -0.2048 -0.4305
 3416SOL    HW110840   6.560   0.993   1.190  0.0437  1.1341 -0.6415
 3416SOL    HW210841   6.534   1.103   1.291 -1.7000  0.3566 -0.2020
 3417SOL     OW10842   6.742   4.963   0.448 -0.0451 -0.4086  0.5322
 3417SOL    HW110843   6.766   4.876   0.479  1.9376 -0.1846 -0.1881
 3417SOL    HW210844   6.740   5.018   0.527 -0.2759 -0.8934  0.8637
 3418SOL     OW10845   7.407   5.263   0.356  0.3415  0.3424 -0.2296
 3418SOL    HW110846   7.412   5.242   0.262  2.1483  1.9984 -0.5685
 3418SOL    HW210847   7.476   5.328   0.369 -0.8510  1.2500  1.9727
 3419SOL     OW10848   7.328   1.491   1.845  0.0803 -0.2599  0.3782
 3419SOL    HW110849   7.236   1.515   1.850  0.1568 -0.0359  0.7312
 3419SOL    HW210850   7.364   1.516   1.930  0.5244 -0.0996  0.1461
 3420SOL     OW10851   6.785   0.101   2.184  0.4741  0.1416 -0.9373
 3420SOL    HW110852   6.768   0.018   2.229 -3.2511  1.5246  0.6094
 3420SOL    HW210853   6.856   0.141   2.234  0.7554 -1.1231 -0.2792
 3421SOL     OW10854   6.578   5.202   3.440 -0.0890 -0.6990  0.4510
 3421SOL    HW110855   6.567   5.109   3.421  0.0800 -0.6218 -0.0155
 3421SOL    HW210856   6.631   5.204   3.520 -1.2599 -1.0301  1.2676
 3422SOL     OW10857   7.173   0.507   0.230 -0.2949  0.0268  0.1569
 3422SOL    HW110858   7.180   0.548   0.317 -0.2662 -0.8695  0.5926
 3422SOL    HW210859   7.219   0.567   0.172  0.5384  0.1653  0.9304
 3423SOL     OW10860   6.190   1.557   3.443 -0.6005 -0.4319  0.0391
 3423SOL    HW110861   6.238   1.506   3.508 -0.1820  0.0644  0.1200
 3423SOL    HW210862   6.233   1.538   3.360 -2.2704 -2.5395 -0.4458
 3424SOL     OW10863   0.049   1.510   1.589  0.5079 -0.0201 -0.4760
 3424SOL    HW110864   0.043   1.416   1.572  1.5688 -0.0311 -0.8501
 3424SOL    HW210865  -0.005   1.524   1.667 -2.0634 -0.4550 -2.0388
 3425SOL     OW10866   0.390   1.469   1.065 -0.1399 -0.5341 -0.4364
 3425SOL    HW110867   0.458   1.537   1.072  2.6226 -3.2221  1.4438
 3425SOL    HW210868   0.372   1.463   0.971  0.7090  1.6336 -0.8107
 3426SOL     OW10869   5.762   0.979   1.374  0.3790  0.1195  0.2888
 3426SOL    HW110870   5.822   0.910   1.402 -0.6437 -0.2447  1.6810
 3426SOL    HW210871   5.735   1.022   1.455 -1.1829  0.3101 -0.2981
 3427SOL     OW10872   0.837   0.914   2.800  0.2711  0.1270  0.5387
 3427SOL    HW110873   0.890   0.835   2.809  1.3818  0.7657 -0.1635
 3427SOL    HW210874   0.896   0.985   2.828  0.8954  1.2067 -2.9580
 3428SOL     OW10875   7.186   4.930   0.739 -0.4146 -0.4123  0.0458
 3428SOL    HW110876   7.235   4.851   0.760 -0.1447 -0.3315 -0.2713
 3428SOL    HW210877   7.253   4.997   0.728 -0.6123 -0.2458 -0.1416
 3429SOL     OW10878   0.182   2.251   0.754 -0.0427  0.0742 -0.4131
 3429SOL    HW110879   0.227   2.329   0.788  1.1334 -1.1036  0.8467
 3429SOL    HW210880   0.245   2.180   0.765 -0.4473 -0.8125 -3.0884
 3430SOL     OW10881   6.458   1.953   3.292 -0.1809 -0.2075  0.0177
 3430SOL    HW110882   6.453   1.955   3.197  0.1102 -1.7013 -0.0632
 3430SOL    HW210883   6.478   1.861   3.313 -2.1142 -0.3267  1.6156
 3431SOL     OW10884   5.669   0.912   0.699  1.2824 -0.0679 -0.3796
 3431SOL    HW110885   5.741   0.852   0.680  0.6638 -0.5175 -1.4455
 3431SOL    HW210886   5.625   0.923   0.614 -0.1072 -0.0879  0.3107
 3432SOL     OW10887   5.601   0.376   1.243  0.5486  0.4245 -0.1533
 3432SOL    HW110888   5.680   0.355   1.193  0.2580 -4.1129  0.9149
 3432SOL    HW210889   5.632   0.386   1.333  0.2263  1.8677 -0.1774
 3433SOL     OW10890   0.907   5.034   2.990  0.1089  0.0159 -0.0838
 3433SOL    HW110891   0.843   5.046   3.060  0.9448  0.8159  0.5683
 3433SOL    HW210892   0.934   4.942   2.998 -0.5673 -0.1862 -0.0427
 3434SOL     OW10893   5.506   1.483   3.095  0.2606  0.1834 -0.2559
 3434SOL    HW110894   5.507   1.417   3.026  0.4583  0.5987 -0.6634
 3434SOL    HW210895   5.599   1.496   3.116  0.1430 -0.8334  0.9734
 3435SOL     OW10896   5.561   1.364   0.150 -0.4821 -0.3166 -0.0955
 3435SOL    HW110897   5.596   1.415   0.224  0.4932 -0.0679 -0.7154
 3435SOL    HW210898   5.633   1.359   0.088 -0.7370 -1.9948 -0.3014
 3436SOL     OW10899   4.827   1.688   0.095  0.3989 -0.3576  0.0737
 3436SOL    HW110900   4.887   1.675   0.168 -1.7016  0.3919  2.0459
 3436SOL    HW210901   4.744   1.652   0.125 -0.8233  1.0001 -1.4920
 3437SOL     OW10902   6.601   2.414   2.582  0.3130  0.0659 -0.3143
 3437SOL    HW110903   6.682   2.394   2.535 -1.0665 -0.1633 -2.7737
 3437SOL    HW210904   6.600   2.352   2.655  2.9277  0.9506  0.5918
 3438SOL     OW10905   6.146   1.215   0.545  0.7082  0.4282  0.2879
 3438SOL    HW110906   6.066   1.181   0.584 -0.2891  1.6081 -0.6391
 3438SOL    HW210907   6.117   1.287   0.488  2.3095  0.2120 -0.8934
 3439SOL     OW10908   6.683   0.503   2.260 -0.3064  0.2679  0.5748
 3439SOL    HW110909   6.619   0.432   2.266 -0.7572  0.7723  2.1856
 3439SOL    HW210910   6.664   0.545   2.176 -0.9330 -0.6678  0.2352
 3440SOL     OW10911   7.078   0.658   1.712  0.3934 -0.5150  0.2051
 3440SOL    HW110912   7.085   0.567   1.684  0.6121 -0.5049  0.2240
 3440SOL    HW210913   7.107   0.709   1.636 -1.3748 -0.3833 -0.4317
 3441SOL     OW10914   6.932   0.789   0.016  0.9033  0.8652 -0.7013
 3441SOL    HW110915   6.897   0.791  -0.073 -0.6103 -1.0528 -0.2302
 3441SOL    HW210916   6.863   0.830   0.069  0.6561 -0.2507 -0.1288
 3442SOL     OW10917   7.452   1.034   1.834 -0.4355 -0.2726 -0.1675
 3442SOL    HW110918   7.420   0.988   1.756  0.8446 -1.7720  0.1387
 3442SOL    HW210919   7.397   1.000   1.905 -0.8819  0.2845 -0.2349
 3443SOL     OW10920   6.274   0.975   0.960  0.3219 -0.0204  0.6597
 3443SOL    HW110921   6.279   0.987   1.055  1.4372  0.9658  0.5017
 3443SOL    HW210922   6.184   0.999   0.938  0.3929  0.9281  1.3368
 3444SOL     OW10923   6.878   0.900   0.427  0.1401  0.2804 -0.2871
 3444SOL    HW110924   6.827   0.977   0.454  0.1215  0.6716 -1.3888
 3444SOL    HW210925   6.967   0.933   0.419  0.0778  0.2784 -1.0740
 3445SOL     OW10926   6.146   2.013   1.529  0.0426 -0.1516  0.3489
 3445SOL    HW110927   6.135   1.932   1.479  0.8882  0.8310 -1.5492
 3445SOL    HW210928   6.241   2.017   1.545 -0.2390 -0.6613  2.5366
 3446SOL     OW10929   5.730   1.008   1.110 -1.1135  0.4675 -0.2178
 3446SOL    HW110930   5.647   0.960   1.108 -2.0589  2.0297 -0.3430
 3446SOL    HW210931   5.754   1.012   1.202 -0.8019 -0.5491 -0.2350
 3447SOL     OW10932   6.334   1.138   3.002 -0.0669 -0.5315  0.0818
 3447SOL    HW110933   6.263   1.149   2.939  1.0212  0.2656 -1.0618
 3447SOL    HW210934   6.360   1.227   3.025 -1.2701 -0.7781  2.6857
 3448SOL     OW10935   6.539   0.992   0.484 -0.4832  0.2118 -0.1705
 3448SOL    HW110936   6.606   1.059   0.472 -1.0185  0.4306 -2.3550
 3448SOL    HW210937   6.464   1.024   0.434 -1.1173 -1.5147 -0.3873
 3449SOL     OW10938   5.236   1.312   0.501  0.1623  0.8675 -0.0754
 3449SOL    HW110939   5.213   1.232   0.454 -0.8966  0.2717  1.3777
 3449SOL    HW210940   5.327   1.299   0.528 -0.6633 -0.9899  2.1851
 3450SOL     OW10941   0.453   1.244   0.251 -0.0902  0.2846  0.5530
 3450SOL    HW110942   0.412   1.263   0.166 -1.1179 -2.4170  0.3451
 3450SOL    HW210943   0.392   1.279   0.315 -1.3349 -1.0627  0.1763
 3451SOL     OW10944   6.728   3.052   3.292  0.7318  0.1133 -0.2481
 3451SOL    HW110945   6.739   3.130   3.237 -0.0436  0.9608  0.7695
 3451SOL    HW210946   6.733   3.085   3.382  4.3394 -1.5521  0.3327
 3452SOL     OW10947   5.218   0.557   1.409 -0.4327 -0.3779 -0.1857
 3452SOL    HW110948   5.173   0.511   1.480  1.9585 -1.2161  0.8940
 3452SOL    HW210949   5.311   0.551   1.432  0.2752  1.1317 -2.3594
 3453SOL     OW10950   0.033   0.468   2.892 -0.2133  0.0803 -0.6744
 3453SOL    HW110951  -0.051   0.514   2.886 -0.2156  0.4140  1.2033
 3453SOL    HW210952   0.014   0.391   2.945  0.6121  0.0435 -0.4300
 3454SOL     OW10953   6.121   1.353   3.018  0.4114 -0.6783  0.3973
 3454SOL    HW110954   6.160   1.387   3.099 -0.1278  1.6791 -0.2553
 3454SOL    HW210955   6.108   1.431   2.963 -0.0982 -2.0977 -1.5943
 3455SOL     OW10956   5.980   1.376   0.381  0.6997  0.1908 -0.4854
 3455SOL    HW110957   5.952   1.323   0.307  0.8334 -0.1654 -0.2860
 3455SOL    HW210958   6.022   1.452   0.342  1.2679 -0.2632 -0.7824
 3456SOL     OW10959   5.381   2.610   1.613  0.1977  0.1317 -0.4837
 3456SOL    HW110960   5.447   2.562   1.563  1.3173  1.3914 -0.2771
 3456SOL    HW210961   5.375   2.564   1.696  0.4265 -0.2977 -0.7043
 3457SOL     OW10962   7.221   2.340   0.877 -0.5090 -0.4861 -0.0988
 3457SOL    HW110963   7.201   2.292   0.796  2.2251 -1.1482 -0.4563
 3457SOL    HW210964   7.205   2.276   0.947 -0.6717 -0.6307 -0.2657
 3458SOL     OW10965   6.064   0.610   1.639  0.7262 -0.2839  0.4206
 3458SOL    HW110966   6.009   0.545   1.683 -0.0673  0.2948  0.3110
 3458SOL    HW210967   6.016   0.631   1.559  2.2478 -1.4748 -0.8756
 3459SOL     OW10968   6.181   3.101   2.117 -0.6344  0.5640  0.0618
 3459SOL    HW110969   6.116   3.046   2.073  0.6588 -1.1058  0.1326
 3459SOL    HW210970   6.247   3.039   2.148 -0.0154  2.0002  1.7696
 3460SOL     OW10971   6.051   3.330   1.863 -0.3738 -0.2193  0.2071
 3460SOL    HW110972   6.101   3.345   1.783 -2.9952 -1.7679 -1.9153
 3460SOL    HW210973   6.050   3.414   1.908  1.9868  0.4529 -0.8802
 3461SOL     OW10974   6.157   0.474   0.451 -0.0971 -0.6438  0.0491
 3461SOL    HW110975   6.160   0.397   0.394  2.0870 -0.5003 -0.1082
 3461SOL    HW210976   6.208   0.540   0.404  0.5561 -0.0660  1.5228
 3462SOL     OW10977   7.002   1.692   3.352 -0.1230  0.0340 -0.5941
 3462SOL    HW110978   7.033   1.611   3.311 -0.2487 -0.5145  0.3810
 3462SOL    HW210979   7.044   1.693   3.438 -1.7370 -0.0435  0.2220
 3463SOL     OW10980   6.193   0.403   3.348  0.4591  0.1736 -0.2348
 3463SOL    HW110981   6.209   0.424   3.256 -1.2425 -0.1937 -0.6629
 3463SOL    HW210982   6.167   0.310   3.347 -0.8976  0.5185  0.4048
 3464SOL     OW10983   7.240   2.763   0.587  0.6054 -0.3195 -0.8816
 3464SOL    HW110984   7.262   2.816   0.510  0.9653  0.6101 -0.1472
 3464SOL    HW210985   7.145   2.770   0.595  0.4271 -1.3171 -1.8710
 3465SOL     OW10986   7.485   0.842   3.151  0.0840  0.3040  0.4103
 3465SOL    HW110987   7.579   0.855   3.144  0.1595 -0.0622  0.7027
 3465SOL    HW210988   7.475   0.764   3.206 -0.3457 -0.9081 -1.2894
 3466SOL     OW10989   5.622   0.679   1.313 -0.2916  0.0226 -0.1240
 3466SOL    HW110990   5.564   0.746   1.277 -1.2945 -0.5373  0.4260
 3466SOL    HW210991   5.619   0.607   1.249  1.5932  0.8596 -1.2473
 3467SOL     OW10992   6.098   1.363   1.482 -0.8317  0.1970 -0.3912
 3467SOL    HW110993   6.074   1.277   1.446 -0.2097 -0.3258  0.4295
 3467SOL    HW210994   6.035   1.424   1.442 -2.1225 -0.8214  0.0219
 3468SOL     OW10995   6.538   1.330   3.339 -0.0014  0.3773 -0.1985
 3468SOL    HW110996   6.567   1.329   3.430  0.5769 -0.7220 -0.3753
 3468SOL    HW210997   6.443   1.317   3.344  0.0362  0.2594  0.2412
 3469SOL     OW10998   6.553   0.575   0.085 -0.2688 -0.3097  0.3383
 3469SOL    HW110999   6.528   0.504   0.144 -2.9170  1.0532  0.9933
 3469SOL    HW211000   6.577   0.647   0.144  0.4715 -0.0086 -0.3092
 3470SOL     OW11001   6.071   1.104   1.461 -0.4771 -0.0912 -0.5163
 3470SOL    HW111002   6.136   1.046   1.422 -0.4767  0.3119 -1.1329
 3470SOL    HW211003   6.005   1.046   1.497 -0.4695 -0.4737 -1.1182
 3471SOL     OW11004   6.956   1.341   0.969  0.1076 -0.6494  0.5272
 3471SOL    HW111005   6.887   1.405   0.951  0.4611 -0.4339 -0.1094
 3471SOL    HW211006   6.914   1.276   1.026 -0.7146 -0.6887 -0.1009
 3472SOL     OW11007   6.644   1.562   1.778 -0.0931  0.0908 -0.1772
 3472SOL    HW111008   6.680   1.498   1.839 -1.0243 -2.2432 -1.9547
 3472SOL    HW211009   6.566   1.596   1.822 -0.8992 -1.7532 -0.0962
 3473SOL     OW11010   5.063   0.749   2.793  0.3426  0.4617 -0.4604
 3473SOL    HW111011   5.021   0.834   2.789  0.6306  0.6367  0.1046
 3473SOL    HW211012   5.152   0.765   2.761  0.0346  0.1187 -1.5343
 3474SOL     OW11013   1.213   4.219   0.333  0.4606 -0.5317 -0.4857
 3474SOL    HW111014   1.243   4.264   0.254  0.1798 -0.5803 -0.6243
 3474SOL    HW211015   1.272   4.248   0.402  0.4510 -0.1678 -0.6299
 3475SOL     OW11016   7.103   1.010   0.397 -0.0582  0.0962 -0.2364
 3475SOL    HW111017   7.070   1.094   0.430 -1.8356 -1.0766  1.1009
 3475SOL    HW211018   7.197   1.026   0.384 -0.0214  1.8203  1.5620
 3476SOL     OW11019   0.225   0.360   1.219  0.1166  0.0300 -0.3137
 3476SOL    HW111020   0.275   0.437   1.190  2.4476 -1.7664 -1.3879
 3476SOL    HW211021   0.148   0.358   1.163 -0.1557  1.7183 -0.0580
 3477SOL     OW11022   6.502   0.895   0.825  0.0318 -0.4110 -0.0494
 3477SOL    HW111023   6.491   0.874   0.732  0.0760  1.5670 -0.5413
 3477SOL    HW211024   6.415   0.919   0.854  0.4007  1.2276 -0.2108
 3478SOL     OW11025   5.111   0.566   0.136 -0.1391 -0.1972  0.0487
 3478SOL    HW111026   5.166   0.493   0.164  0.7013  0.7751  1.0066
 3478SOL    HW211027   5.025   0.527   0.120  0.6286 -1.6327 -0.8267
 3479SOL     OW11028   6.994   1.496   0.517  0.4053  0.0144  0.6910
 3479SOL    HW111029   6.921   1.554   0.496 -0.3131 -0.5330  1.6133
 3479SOL    HW211030   7.072   1.550   0.503 -0.2411  1.1691  1.4004
 3480SOL     OW11031   0.153   2.736   0.627  0.1535 -0.0628  0.4248
 3480SOL    HW111032   0.243   2.705   0.637 -1.1312 -3.7114  2.1941
 3480SOL    HW211033   0.129   2.769   0.714 -0.3901  0.4682  0.0866
 3481SOL     OW11034   6.733   1.184   0.557 -0.3272 -0.1772  0.0656
 3481SOL    HW111035   6.739   1.138   0.640 -0.1070  1.5584  1.0747
 3481SOL    HW211036   6.819   1.223   0.545 -0.6548  0.4031 -0.4713
 3482SOL     OW11037   7.192   1.118   1.257  0.5023 -0.1932 -0.2200
 3482SOL    HW111038   7.182   1.111   1.352  0.5689  0.2536 -0.1765
 3482SOL    HW211039   7.175   1.210   1.238  0.5187 -0.2747 -0.6394
 3483SOL     OW11040   5.223   2.625   2.523 -0.0734  0.1725 -0.5281
 3483SOL    HW111041   5.252   2.674   2.600  1.7040 -0.4633 -0.7379
 3483SOL    HW211042   5.132   2.604   2.540 -0.6468  2.7372 -0.0226
 3484SOL     OW11043   6.683   0.541   0.499 -0.1388 -0.5966  0.3185
 3484SOL    HW111044   6.684   0.449   0.472 -0.2220 -0.5036 -0.0068
 3484SOL    HW211045   6.669   0.538   0.594 -1.2011 -0.8952  0.1652
 3485SOL     OW11046   7.197   1.086   3.262  0.4439  0.3175 -0.7020
 3485SOL    HW111047   7.142   1.028   3.209  1.1786 -0.6441 -0.4217
 3485SOL    HW211048   7.136   1.125   3.325  0.0226 -0.5287 -0.5681
 3486SOL     OW11049   6.001   1.061   0.932  0.0584 -0.2352 -0.2399
 3486SOL    HW111050   5.927   1.026   0.983 -0.2196  0.5013 -0.1279
 3486SOL    HW211051   5.967   1.140   0.891  0.4890 -0.4486 -1.0258
 3487SOL     OW11052   0.797   1.075   0.023 -0.4283 -0.3444  0.0058
 3487SOL    HW111053   0.888   1.065   0.052 -0.4604 -2.1661 -0.4005
 3487SOL    HW211054   0.760   1.139   0.083  1.3957  1.3042 -0.5107
 3488SOL     OW11055   5.894   2.525   0.989 -0.0717  0.0189  0.0297
 3488SOL    HW111056   5.802   2.513   0.965 -0.3021  2.2416 -0.3605
 3488SOL    HW211057   5.938   2.543   0.906  0.4937  0.2155  0.3657
 3489SOL     OW11058   7.015   0.704   2.878  0.1801 -0.1560 -0.2233
 3489SOL    HW111059   7.004   0.743   2.792 -0.4213  1.1952  0.4331
 3489SOL    HW211060   7.069   0.766   2.927 -3.0596  1.4326  1.7206
 3490SOL     OW11061   7.242   2.398   0.527  0.3516  0.4402  0.1459
 3490SOL    HW111062   7.319   2.454   0.516 -1.1493  2.2579 -1.8481
 3490SOL    HW211063   7.258   2.324   0.468  0.1372  1.3468 -1.0830
 3491SOL     OW11064   6.378   1.927   1.403  0.1710  0.6468  0.2786
 3491SOL    HW111065   6.414   1.840   1.386 -0.6351  0.4463 -0.5070
 3491SOL    HW211066   6.444   1.987   1.370  0.9526  0.3534  1.2747
 3492SOL     OW11067   7.471   2.008   0.065 -0.0061  0.0061  0.0859
 3492SOL    HW111068   7.430   1.949   0.001  2.3900  0.0757 -1.6649
 3492SOL    HW211069   7.403   2.070   0.088 -2.1293 -2.3601  0.6895
 3493SOL     OW11070   1.325   1.296   0.774 -0.3456  0.2214  0.8091
 3493SOL    HW111071   1.322   1.216   0.723  2.2787 -0.0288  0.9370
 3493SOL    HW211072   1.403   1.287   0.829 -1.6572  1.5692  3.0453
 3494SOL     OW11073   6.380   1.283   1.458  0.4529  0.0139 -0.3289
 3494SOL    HW111074   6.380   1.234   1.541  3.2050  0.2875 -0.0635
 3494SOL    HW211075   6.306   1.343   1.465  0.7948  0.2419  2.0763
 3495SOL     OW11076   7.386   1.481   0.634 -0.6387  0.4666 -0.0403
 3495SOL    HW111077   7.336   1.533   0.572 -1.7447  0.1522  0.5542
 3495SOL    HW211078   7.349   1.393   0.628 -0.0651  0.1913  0.3157
 3496SOL     OW11079   6.741   0.734   2.400  0.3605  0.3321  0.0675
 3496SOL    HW111080   6.707   0.654   2.359  0.0931 -0.3890  1.5986
 3496SOL    HW211081   6.825   0.750   2.357  0.4223 -0.7948 -0.2607
 3497SOL     OW11082   0.986   4.774   2.925  0.6650  0.3167  0.2128
 3497SOL    HW111083   0.942   4.767   2.840  1.8073  1.6284 -0.5224
 3497SOL    HW211084   1.023   4.686   2.940  0.4958  0.0878 -0.6679
 3498SOL     OW11085   5.461   4.848   0.570 -0.3474  0.0318  0.3704
 3498SOL    HW111086   5.545   4.803   0.578 -0.5955 -0.5426 -0.1505
 3498SOL    HW211087   5.424   4.847   0.658  0.5146  0.9606  0.7702
 3499SOL     OW11088   7.464   1.975   0.724 -0.9026  0.3977 -0.0579
 3499SOL    HW111089   7.463   1.886   0.760 -0.0240  0.3645 -0.0824
 3499SOL    HW211090   7.506   2.028   0.791  1.0953  0.2599 -1.1203
 3500SOL     OW11091   6.438   0.193   0.894 -0.3012 -0.0081  0.7281
 3500SOL    HW111092   6.346   0.194   0.920 -0.7992 -2.8670 -0.4442
 3500SOL    HW211093   6.437   0.149   0.809  2.2318 -0.9978  1.1364
 3501SOL     OW11094   5.973   3.085   0.484  0.1251 -0.0621  0.1957
 3501SOL    HW111095   5.940   3.102   0.396 -0.9811 -0.6699  0.4812
 3501SOL    HW211096   6.035   3.013   0.473 -0.9530 -1.0048  0.0701
 3502SOL     OW11097   7.346   5.295   1.078  0.3734 -0.6644 -0.0511
 3502SOL    HW111098   7.277   5.359   1.091  0.8100  0.0148 -1.0426
 3502SOL    HW211099   7.313   5.216   1.122 -0.4988 -0.0071  0.5121
 3503SOL     OW11100   7.084   4.875   0.496  0.0157 -0.3692  0.3892
 3503SOL    HW111101   7.037   4.800   0.532  0.3083 -0.0466  1.4920
 3503SOL    HW211102   7.107   4.928   0.573 -0.3090  0.9244 -0.3780
 3504SOL     OW11103   6.713   1.976   0.301 -0.3255  0.0913 -0.3089
 3504SOL    HW111104   6.676   1.981   0.213  0.2354 -1.9202 -0.7251
 3504SOL    HW211105   6.806   1.996   0.290  0.0466 -1.5379 -0.4779
 3505SOL     OW11106   6.995   4.123   2.710  0.2861  0.3660 -0.0117
 3505SOL    HW111107   7.063   4.187   2.687  1.2897 -0.9795 -0.9933
 3505SOL    HW211108   6.926   4.175   2.751  0.4428  2.3100 -1.9915
 3506SOL     OW11109   5.502   0.360   3.432 -0.7038 -0.3195  0.4638
 3506SOL    HW111110   5.437   0.420   3.468  0.5352  1.4499 -0.1263
 3506SOL    HW211111   5.495   0.281   3.486 -2.1918  0.4448  1.4372
 3507SOL     OW11112   0.144   4.881   2.406 -0.3254  0.1432  0.0164
 3507SOL    HW111113   0.190   4.797   2.399  1.1929  0.8207  1.3505
 3507SOL    HW211114   0.061   4.859   2.447  0.9894 -0.4923  2.5563
 3508SOL     OW11115   6.571   0.731   0.342  0.5169  0.0245 -0.1428
 3508SOL    HW111116   6.599   0.810   0.388  1.8249 -0.2000 -0.4954
 3508SOL    HW211117   6.606   0.659   0.395 -1.5680 -0.3849  0.7535
 3509SOL     OW11118   7.126   0.830   0.778  0.2369  0.1586 -0.0266
 3509SOL    HW111119   7.066   0.860   0.847 -0.4080  0.4174 -0.6978
 3509SOL    HW211120   7.153   0.742   0.807 -0.2087  0.1692  0.4343
 3510SOL     OW11121   4.391   0.169   2.278  0.3981 -0.2492  0.1448
 3510SOL    HW111122   4.398   0.080   2.244  2.1746 -0.4682  0.9561
 3510SOL    HW211123   4.298   0.190   2.275 -0.1775 -2.5014  0.8907
 3511SOL     OW11124   7.375   5.443   3.410  0.1307 -0.5688  0.0033
 3511SOL    HW111125   7.381   5.383   3.336  1.3463  1.9298 -2.0786
 3511SOL    HW211126   7.295   5.493   3.395  0.5136  0.1332  0.1933
 3512SOL     OW11127   6.092   0.559   2.614  0.4881 -0.1809 -0.3982
 3512SOL    HW111128   6.031   0.485   2.612  0.9998 -0.5906 -1.5351
 3512SOL    HW211129   6.042   0.630   2.654 -0.5532 -0.6619 -0.8100
 3513SOL     OW11130   5.333   2.878   2.344  0.2487 -0.1955  0.3273
 3513SOL    HW111131   5.263   2.821   2.376 -0.2158 -0.1810 -0.6139
 3513SOL    HW211132   5.293   2.926   2.271  0.1272  2.4720  1.9998
 3514SOL     OW11133   6.584   1.190   2.438 -0.0206 -0.0853 -0.1653
 3514SOL    HW111134   6.616   1.194   2.348  0.8398 -2.3783 -0.0320
 3514SOL    HW211135   6.501   1.142   2.432 -1.0642  1.5847  0.0763
 3515SOL     OW11136   6.898   1.015   2.350 -0.2982  0.0809 -0.1778
 3515SOL    HW111137   6.949   0.935   2.336 -1.5937 -0.6942 -0.6459
 3515SOL    HW211138   6.846   1.025   2.270 -0.6508  1.0298  0.1465
 3516SOL     OW11139   0.563   1.417   2.512 -0.1422  0.3749  0.1890
 3516SOL    HW111140   0.585   1.324   2.515 -1.9361 -0.0586  1.9015
 3516SOL    HW211141   0.506   1.425   2.436  0.7786  0.2918 -0.5301
 3517SOL     OW11142   7.126   0.705   1.981 -0.6091  0.5410 -0.0336
 3517SOL    HW111143   7.128   0.722   1.887  0.2161  0.4951 -0.0337
 3517SOL    HW211144   7.117   0.610   1.989  1.4455  0.2899 -0.1113
 3518SOL     OW11145   4.360   5.374   2.221 -0.0795  0.1465 -0.0446
 3518SOL    HW111146   4.430   5.310   2.209  0.3122  0.5578  0.0281
 3518SOL    HW211147   4.306   5.365   2.142 -0.8671 -1.2847  0.6261
 3519SOL     OW11148   6.210   1.243   2.526 -0.2880  0.7739  0.5205
 3519SOL    HW111149   6.248   1.326   2.497  1.4707  0.4962  1.8644
 3519SOL    HW211150   6.164   1.265   2.607  1.5056  0.2398  1.7512
 3520SOL     OW11151   7.240   1.979   0.552 -0.2966 -0.2085 -0.5744
 3520SOL    HW111152   7.292   1.996   0.631  0.0978 -0.0588 -0.8625
 3520SOL    HW211153   7.265   2.050   0.492 -1.1969  0.1496 -0.5430
 3521SOL     OW11154   5.833   0.289   1.140  0.2712 -0.8168 -0.2339
 3521SOL    HW111155   5.917   0.305   1.183 -0.9443 -0.0680  2.0605
 3521SOL    HW211156   5.855   0.242   1.060  2.9023 -0.1538  0.0107
 3522SOL     OW11157   6.143   4.760   3.322 -0.4804 -0.8065 -0.2941
 3522SOL    HW111158   6.123   4.672   3.290 -1.5820 -0.7288  0.1264
 3522SOL    HW211159   6.070   4.780   3.381 -0.8123  0.8101 -1.2167
 3523SOL     OW11160   6.257   1.750   2.321 -0.3234  0.0288 -0.3938
 3523SOL    HW111161   6.315   1.809   2.370 -0.4247  0.7514 -1.1271
 3523SOL    HW211162   6.205   1.808   2.266 -2.6495 -0.4593  1.1465
 3524SOL     OW11163   6.956   1.530   1.271  0.3677  0.3874 -0.0041
 3524SOL    HW111164   7.042   1.489   1.259  0.0033 -0.0773 -1.2011
 3524SOL    HW211165   6.897   1.458   1.291 -0.0721  0.4285 -1.0471
 3525SOL     OW11166   5.347   1.341   2.378 -0.0968 -0.9250  0.2670
 3525SOL    HW111167   5.316   1.311   2.464  0.9020 -3.3172 -0.1281
 3525SOL    HW211168   5.396   1.420   2.397 -1.2563 -0.4964  1.6805
 3526SOL     OW11169   5.772   1.015   2.815  0.0327  0.2328  0.3317
 3526SOL    HW111170   5.806   0.934   2.852  0.8642  1.3954  2.2902
 3526SOL    HW211171   5.847   1.075   2.816 -0.9853  1.5494  0.5959
 3527SOL     OW11172   5.660   1.024   2.296  0.2421  0.6420  0.0978
 3527SOL    HW111173   5.676   0.959   2.364 -0.6916 -0.0264 -0.2913
 3527SOL    HW211174   5.747   1.050   2.266  0.6408 -0.0538  0.6131
 3528SOL     OW11175   0.870   4.913   2.530  0.2369 -0.2840  0.0693
 3528SOL    HW111176   0.881   4.821   2.555  0.0708 -0.2284  0.3549
 3528SOL    HW211177   0.913   4.962   2.600 -0.3900 -0.1183  0.3479
 3529SOL     OW11178   6.342   0.528   2.680  0.1303 -0.5150 -0.2239
 3529SOL    HW111179   6.250   0.541   2.657 -0.1895  2.2255  2.0461
 3529SOL    HW211180   6.382   0.614   2.668  2.4459 -1.6724 -1.2200
 3530SOL     OW11181   7.204   2.752   0.073  0.2736  0.2769  0.5212
 3530SOL    HW111182   7.187   2.834   0.119  0.1789  0.3331  0.3878
 3530SOL    HW211183   7.291   2.765   0.033  0.9744 -0.2884  1.8101
 3531SOL     OW11184   6.319   1.267   2.157 -0.2667  0.2447  0.0559
 3531SOL    HW111185   6.235   1.242   2.119  1.0065 -1.0846 -2.1434
 3531SOL    HW211186   6.321   1.362   2.151 -1.4407  0.2662 -0.2412
 3532SOL     OW11187   0.216   0.945   1.808 -0.1000  0.1653 -0.4355
 3532SOL    HW111188   0.221   0.851   1.793  0.9447  0.1597 -0.0991
 3532SOL    HW211189   0.124   0.961   1.832  0.4341 -1.2930  3.0469
 3533SOL     OW11190   0.368   1.439   1.526  0.5004 -0.2866  0.1049
 3533SOL    HW111191   0.321   1.510   1.482 -1.2110 -1.0405  0.6425
 3533SOL    HW211192   0.402   1.385   1.454 -0.6749 -0.5004 -0.3025
 3534SOL     OW11193   5.790   1.372   3.001 -0.4450 -0.1159 -0.0780
 3534SOL    HW111194   5.883   1.379   3.023 -0.3133 -0.1577 -0.6095
 3534SOL    HW211195   5.755   1.312   3.067 -0.5291  1.4323  1.3724
 3535SOL     OW11196   7.112   1.016   2.538 -0.3726 -0.4251  0.2497
 3535SOL    HW111197   7.193   0.988   2.496  0.6803  0.9294  1.2591
 3535SOL    HW211198   7.051   1.031   2.465  0.6866 -0.2723 -0.6365
 3536SOL     OW11199   0.280   1.897   3.446 -0.3003  0.1455  0.3193
 3536SOL    HW111200   0.253   1.897   3.353  0.5063 -0.6478  0.0769
 3536SOL    HW211201   0.312   1.986   3.461  1.0873 -0.1735 -0.6232
 3537SOL     OW11202   6.022   5.192   3.145  0.4439 -0.0195 -0.1301
 3537SOL    HW111203   5.981   5.106   3.152 -1.1703  0.6516 -0.8108
 3537SOL    HW211204   6.021   5.226   3.235 -2.6188  0.8481 -0.3606
 3538SOL     OW11205   5.992   0.580   3.307 -0.0778  0.2100  0.1497
 3538SOL    HW111206   5.944   0.586   3.390  0.6377  1.3360  0.5021
 3538SOL    HW211207   6.065   0.521   3.326  0.7524  1.3513  0.6987
 3539SOL     OW11208   0.226   2.415   1.980  0.1413 -0.1533  0.3286
 3539SOL    HW111209   0.223   2.490   2.038  0.2437  0.2977 -0.2352
 3539SOL    HW211210   0.256   2.451   1.896  0.0270 -0.7904  0.0078
 3540SOL     OW11211   6.517   2.095   2.202  0.4026 -0.3352 -0.3238
 3540SOL    HW111212   6.523   2.102   2.107  2.0767  0.0954 -0.2252
 3540SOL    HW211213   6.464   2.170   2.228 -1.5601 -1.4252 -1.0133
 3541SOL     OW11214   0.265   2.268   3.039  0.3716  0.3946 -0.3447
 3541SOL    HW111215   0.181   2.268   3.086  0.0319  0.2900 -0.9386
 3541SOL    HW211216   0.329   2.297   3.103  0.1823 -1.2485  0.6499
 3542SOL     OW11217   0.906   0.443   1.408  0.5824 -0.1417  0.0598
 3542SOL    HW111218   0.847   0.391   1.462 -1.6854  1.1451 -1.0660
 3542SOL    HW211219   0.926   0.387   1.333 -1.9519  0.5235 -1.2149
 3543SOL     OW11220   6.490   0.338   0.330  0.1323 -0.5744 -0.4339
 3543SOL    HW111221   6.452   0.358   0.415 -2.1892 -0.1789 -1.4899
 3543SOL    HW211222   6.488   0.242   0.325  0.4642 -0.6074  0.0260
 3544SOL     OW11223   7.129   1.630   2.392 -0.1654 -0.2330 -0.8762
 3544SOL    HW111224   7.201   1.613   2.332 -0.6799  0.8853 -1.8440
 3544SOL    HW211225   7.162   1.602   2.478  2.3402  2.3567 -0.8395
 3545SOL     OW11226   7.132   0.176   2.861  0.5542  0.0105  0.3768
 3545SOL    HW111227   7.060   0.117   2.837  1.2790 -0.2621 -1.2214
 3545SOL    HW211228   7.091   0.263   2.863  0.2547 -0.0686 -1.0405
 3546SOL     OW11229   6.755   0.509   2.839 -0.5823 -0.2149 -0.7594
 3546SOL    HW111230   6.765   0.604   2.845  1.1529 -0.4265  0.2189
 3546SOL    HW211231   6.740   0.493   2.746 -1.3879  1.0335 -0.8753
 3547SOL     OW11232   5.262   0.928   3.477  0.5817  0.1554  0.4153
 3547SOL    HW111233   5.317   0.930   3.399 -1.6243  2.1671 -1.2009
 3547SOL    HW211234   5.286   1.007   3.526 -1.5406  1.7006 -0.8965
 3548SOL     OW11235   6.726   0.693   1.377 -0.1737 -0.0803 -0.2754
 3548SOL    HW111236   6.697   0.745   1.453  3.0537 -1.0815  1.8393
 3548SOL    HW211237   6.776   0.621   1.415  3.3798  0.4681 -3.2991
 3549SOL     OW11238   5.753   0.703   1.856 -0.1164 -0.3509  0.1772
 3549SOL    HW111239   5.695   0.665   1.923 -0.4383  0.4186  0.3385
 3549SOL    HW211240   5.695   0.723   1.783 -0.0759  0.4727  0.3584
 3550SOL     OW11241   6.509   1.980   0.075 -0.0657 -0.0143  0.1572
 3550SOL    HW111242   6.587   1.986   0.021 -1.0701 -0.7795 -1.4426
 3550SOL    HW211243   6.490   2.071   0.100  0.4426  0.3503 -0.7412
 3551SOL     OW11244   6.646   0.907   1.075  0.0867  0.1045  0.3501
 3551SOL    HW111245   6.741   0.917   1.062 -0.0684  1.5610  0.1798
 3551SOL    HW211246   6.612   0.892   0.987  0.1850 -0.7427  0.4510
 3552SOL     OW11247   0.000   0.374   1.914 -0.1547  0.3364 -0.3188
 3552SOL    HW111248   0.055   0.311   1.866  0.7327  0.8804 -0.0406
 3552SOL    HW211249   0.052   0.454   1.916 -1.6101  1.3602 -1.3948
 3553SOL     OW11250   6.680   0.963   2.568 -0.0225  0.5220  0.2917
 3553SOL    HW111251   6.724   0.913   2.499 -1.1684 -0.8177  0.5051
 3553SOL    HW211252   6.676   1.052   2.533  0.7097  0.1767 -0.7465
 3554SOL     OW11253   6.766   1.160   3.119  0.4706  0.1607  0.5814
 3554SOL    HW111254   6.778   1.100   3.193 -1.7603 -0.0277  0.8777
 3554SOL    HW211255   6.799   1.112   3.043 -1.0187 -1.3833  0.8544
 3555SOL     OW11256   6.231   2.468   1.788  0.3777 -0.4092 -0.0399
 3555SOL    HW111257   6.164   2.525   1.825  1.9395  0.0029  2.4095
 3555SOL    HW211258   6.299   2.527   1.757 -0.2672 -0.8234 -2.4826
 3556SOL     OW11259   0.140   0.627   1.959  0.1911 -0.2357  0.2088
 3556SOL    HW111260   0.188   0.622   2.041  0.7242 -2.6313 -0.1671
 3556SOL    HW211261   0.197   0.678   1.901  2.0744 -2.4499 -0.0228
 3557SOL     OW11262   7.006   0.911   3.125 -0.1813  0.4826  0.3971
 3557SOL    HW111263   6.950   0.884   3.198  0.1637  0.0758  0.5199
 3557SOL    HW211264   6.946   0.936   3.056 -0.5461 -1.0016  0.1328
 3558SOL     OW11265   6.350   0.219   2.985  0.2886 -0.0993 -0.4339
 3558SOL    HW111266   6.404   0.296   2.966 -0.2393  0.5531  0.5917
 3558SOL    HW211267   6.407   0.145   2.965  1.6062  0.5707  0.5959
 3559SOL     OW11268   7.472   0.593   2.578  0.1383  0.1889  0.2640
 3559SOL    HW111269   7.500   0.504   2.599  1.1775 -0.2082 -2.3935
 3559SOL    HW211270   7.481   0.599   2.483  1.4899  3.5710  0.4727
 3560SOL     OW11271   6.902   2.257   1.998  0.3711  0.6544  0.2341
 3560SOL    HW111272   6.943   2.315   1.933  1.1654 -0.1564 -0.0020
 3560SOL    HW211273   6.915   2.169   1.964 -1.0120  0.3253  0.4913
 3561SOL     OW11274   6.344   0.540   1.133  0.1230 -0.2528  0.3030
 3561SOL    HW111275   6.432   0.534   1.095 -0.3541 -1.3899 -0.6789
 3561SOL    HW211276   6.359   0.579   1.220  1.5293  0.0482 -0.0356
 3562SOL     OW11277   6.408   0.066   1.403  1.2386 -0.4264 -0.1001
 3562SOL    HW111278   6.336   0.124   1.380  0.4323  0.2269  3.4119
 3562SOL    HW211279   6.486   0.108   1.367  0.3701  1.4936  0.1480
 3563SOL     OW11280   6.844   3.334   1.569  0.3306  0.2751 -0.3771
 3563SOL    HW111281   6.919   3.310   1.515 -1.0437 -0.1157 -2.2289
 3563SOL    HW211282   6.779   3.366   1.506 -1.4678 -0.4722  1.0061
 3564SOL     OW11283   6.907   0.436   1.779 -0.1157  0.2244 -0.1872
 3564SOL    HW111284   6.947   0.464   1.861  0.5262  1.2962 -0.8400
 3564SOL    HW211285   6.909   0.340   1.782 -1.0101  0.2293  1.4696
 3565SOL     OW11286   6.341   2.512   2.634 -0.2597  0.4190  0.2546
 3565SOL    HW111287   6.329   2.486   2.725 -0.7660 -0.4191 -0.0474
 3565SOL    HW211288   6.418   2.463   2.604 -3.2963 -3.9463 -1.4301
 3566SOL     OW11289   6.769   1.038   2.104  0.2633  0.4195  0.2630
 3566SOL    HW111290   6.732   0.968   2.050 -1.0252  0.9196  0.4748
 3566SOL    HW211291   6.701   1.105   2.108  0.8355  0.9726  1.4192
 3567SOL     OW11292   6.290   4.759   2.514  0.0362 -0.6924 -0.0683
 3567SOL    HW111293   6.234   4.819   2.465  1.8903  0.3660 -1.0451
 3567SOL    HW211294   6.274   4.780   2.606 -1.5975 -0.8864 -0.2831
 3568SOL     OW11295   6.615   0.619   1.098  0.3773  0.1397  1.0073
 3568SOL    HW111296   6.635   0.704   1.136  1.7400  0.7343 -0.9382
 3568SOL    HW211297   6.687   0.562   1.126 -0.3671 -0.3355  2.0419
 3569SOL     OW11298   6.679   1.415   2.622  0.6419  0.2326 -0.0894
 3569SOL    HW111299   6.653   1.338   2.571  2.5283 -1.1648  0.8924
 3569SOL    HW211300   6.774   1.420   2.609  0.6398  2.1125  0.3241
 3570SOL     OW11301   0.282   1.557   2.001  0.5133  0.2203 -0.0376
 3570SOL    HW111302   0.284   1.489   1.934 -1.3479 -0.6274  0.6985
 3570SOL    HW211303   0.189   1.564   2.025  1.0337  1.0452  1.8954
 3571SOL     OW11304   6.893   1.993   1.951 -0.8414 -0.7639  0.2661
 3571SOL    HW111305   6.909   1.959   1.862 -0.8812  0.0775 -0.0725
 3571SOL    HW211306   6.932   1.928   2.009  1.1857 -0.2654 -0.4517
 3572SOL     OW11307   7.220   0.976   1.969  0.0131  0.8600  0.2569
 3572SOL    HW111308   7.218   1.012   2.058 -1.0903 -0.5668  0.8484
 3572SOL    HW211309   7.178   0.891   1.977  1.4166 -0.0341 -1.3265
 3573SOL     OW11310   6.168   0.403   3.072  0.0029  0.4945 -0.1318
 3573SOL    HW111311   6.091   0.386   3.018  0.5823  0.2226 -0.8852
 3573SOL    HW211312   6.233   0.338   3.044  0.3145  0.3335  0.9042
 3574SOL     OW11313   0.168   0.352   2.258  0.7183 -0.5637  0.3869
 3574SOL    HW111314   0.072   0.357   2.256  0.6237 -1.7015  1.0434
 3574SOL    HW211315   0.186   0.262   2.286  1.9827 -0.2953  0.4714
 3575SOL     OW11316   5.613   0.464   3.189  0.3342 -0.6856 -0.0606
 3575SOL    HW111317   5.577   0.430   3.271 -0.8303 -0.5322 -0.4996
 3575SOL    HW211318   5.660   0.390   3.151 -0.8971 -1.3779 -0.2738
 3576SOL     OW11319   7.296   0.126   2.370 -0.1281  0.1509  0.1668
 3576SOL    HW111320   7.326   0.140   2.460  1.7918 -0.6127 -0.3110
 3576SOL    HW211321   7.332   0.041   2.346 -0.1735  0.5724 -1.5085
 3577SOL     OW11322   6.796   0.791   3.331 -0.2956  0.1585  0.0319
 3577SOL    HW111323   6.802   0.730   3.257 -0.4432 -2.0517  1.7443
 3577SOL    HW211324   6.705   0.822   3.330 -0.7959 -1.2455  0.3065
 3578SOL     OW11325   6.270   2.928   1.467  0.4529 -0.2451 -0.2348
 3578SOL    HW111326   6.298   2.869   1.397  0.8955 -1.1965  0.7056
 3578SOL    HW211327   6.351   2.970   1.496 -0.0971  2.6088 -2.3580
 3579SOL     OW11328   7.014   0.427   2.891 -0.3308 -0.4806 -0.2017
 3579SOL    HW111329   6.929   0.461   2.862  0.5093  1.7696 -0.2510
 3579SOL    HW211330   7.072   0.503   2.888  2.1931 -2.3074 -2.0564
 3580SOL     OW11331   7.463   1.272   1.496  0.4187  0.2064  0.2918
 3580SOL    HW111332   7.493   1.184   1.519  1.1424 -0.3441 -2.4083
 3580SOL    HW211333   7.368   1.270   1.512  0.7790 -0.1258  2.7794
 3581SOL     OW11334   1.419   5.140   1.579 -0.1930 -0.0922  0.1406
 3581SOL    HW111335   1.505   5.182   1.569 -0.4321  0.5686  0.7488
 3581SOL    HW211336   1.364   5.181   1.512 -1.0204  2.2385  2.0941
 3582SOL     OW11337   6.144   0.963   2.710  0.2421 -0.1641 -0.5063
 3582SOL    HW111338   6.097   0.954   2.628  1.5577 -0.0570 -1.3043
 3582SOL    HW211339   6.237   0.960   2.685  0.6941 -1.8506  1.1538
 3583SOL     OW11340   4.793   4.357   0.035  0.3316  0.4490  0.0283
 3583SOL    HW111341   4.862   4.358  -0.031  0.1228 -0.3353 -0.2106
 3583SOL    HW211342   4.740   4.281   0.013  0.4637 -0.0413  1.3080
 3584SOL     OW11343   5.754   0.129   1.599  1.0455 -0.1670  0.4898
 3584SOL    HW111344   5.718   0.212   1.568  0.0569 -0.7299  0.0644
 3584SOL    HW211345   5.695   0.103   1.670 -0.4058 -1.8836 -1.2476
 3585SOL     OW11346   6.566   0.112   0.145 -0.3417 -0.4969  0.3460
 3585SOL    HW111347   6.596   0.183   0.088 -0.2247 -1.6847 -1.1437
 3585SOL    HW211348   6.621   0.119   0.223  1.4689 -0.5034 -0.8636
 3586SOL     OW11349   7.358   2.693   2.734  0.2442 -0.2195 -0.1140
 3586SOL    HW111350   7.303   2.656   2.665  1.4981  1.5131 -2.1743
 3586SOL    HW211351   7.303   2.760   2.775 -0.1046 -0.4346 -0.2271
 3587SOL     OW11352   0.317   0.304   2.971  0.2672  0.3577 -0.3346
 3587SOL    HW111353   0.396   0.310   2.918 -0.5700  1.4435 -1.5375
 3587SOL    HW211354   0.283   0.394   2.972  0.8067  0.6402  3.0007
 3588SOL     OW11355   6.521   0.232   2.287 -0.1987  0.2473  0.5218
 3588SOL    HW111356   6.592   0.177   2.255 -0.8679 -0.3365  0.0092
 3588SOL    HW211357   6.457   0.232   2.216 -0.3569  1.4316  0.6472
 3589SOL     OW11358   5.970   1.561   0.865 -0.4774 -0.2662 -0.0741
 3589SOL    HW111359   5.928   1.561   0.779 -0.1500 -0.1392 -0.2347
 3589SOL    HW211360   5.906   1.602   0.923 -0.9757 -0.9625 -0.1160
 3590SOL     OW11361   7.229   0.648   2.436  0.5513 -0.4115  0.2934
 3590SOL    HW111362   7.228   0.553   2.450  0.1263 -0.6849 -1.3176
 3590SOL    HW211363   7.319   0.674   2.454  0.6857 -1.1385  0.6964
 3591SOL     OW11364   6.878   2.343   2.492  0.1173 -0.3421  0.1987
 3591SOL    HW111365   6.877   2.304   2.405 -3.1609 -1.6995  0.7215
 3591SOL    HW211366   6.949   2.297   2.538 -0.2214 -1.9351 -0.8051
 3592SOL     OW11367   5.746   5.273   1.662 -0.0101 -0.3229 -0.3050
 3592SOL    HW111368   5.782   5.285   1.750 -4.1940  1.0992  1.4534
 3592SOL    HW211369   5.773   5.352   1.615 -2.3743  1.8319  1.6597
 3593SOL     OW11370   7.486   2.557   0.051  0.0845  0.0008  0.5026
 3593SOL    HW111371   7.410   2.517   0.094 -0.0057  0.1803  0.5171
 3593SOL    HW211372   7.448   2.607  -0.022  0.2685 -0.5946 -0.0127
 3594SOL     OW11373   6.863   1.512   0.004  0.2015  0.1740 -0.4894
 3594SOL    HW111374   6.871   1.573  -0.069 -0.6977  1.4290  0.3886
 3594SOL    HW211375   6.772   1.522   0.032  0.3473 -0.7841  0.3621
 3595SOL     OW11376   6.636   1.649   2.451 -0.2227 -0.1873  0.3782
 3595SOL    HW111377   6.693   1.687   2.384 -1.4959  0.7860 -0.1826
 3595SOL    HW211378   6.680   1.567   2.476  0.8028 -0.0504 -0.8852
 3596SOL     OW11379   6.773   0.279   1.057  0.2596  0.4863 -0.0609
 3596SOL    HW111380   6.786   0.308   1.148  0.5877 -0.0648  0.0705
 3596SOL    HW211381   6.712   0.206   1.064  1.4853 -0.5778 -0.1137
 3597SOL     OW11382   5.787   0.537   0.343 -0.2771  0.0753  0.4036
 3597SOL    HW111383   5.728   0.475   0.301 -0.5521  0.4029  0.3020
 3597SOL    HW211384   5.798   0.608   0.280 -2.0832  1.4279  1.5115
 3598SOL     OW11385   7.098   0.138   1.954 -0.2348  0.1250  0.0293
 3598SOL    HW111386   7.108   0.192   1.876  0.9612 -0.5186 -0.2927
 3598SOL    HW211387   7.153   0.062   1.937 -0.3598 -0.2644  1.2886
 3599SOL     OW11388   0.766   0.994   0.658 -0.0305 -0.3580  0.1320
 3599SOL    HW111389   0.845   1.036   0.625  0.3643 -0.9136  0.3614
 3599SOL    HW211390   0.730   0.947   0.583  0.1480 -0.5337  0.1540
 3600SOL     OW11391   7.164   0.207   3.377  0.1875  0.5037  0.2608
 3600SOL    HW111392   7.135   0.297   3.390 -0.1908  0.2201  1.5468
 3600SOL    HW211393   7.083   0.157   3.363  0.4686  0.5192 -1.6361
 3601SOL     OW11394   7.096   1.605   2.735  0.2514  0.0028 -0.3680
 3601SOL    HW111395   7.159   1.636   2.801 -1.7202  0.0299  1.6476
 3601SOL    HW211396   7.150   1.564   2.668  2.4568  0.7271  0.8436
 3602SOL     OW11397   6.352   1.005   2.477 -0.2247 -0.1561 -0.2257
 3602SOL    HW111398   6.350   0.973   2.387  0.8602  1.3215 -0.8155
 3602SOL    HW211399   6.278   1.065   2.483 -1.0190 -1.1568  0.2556
 3603SOL     OW11400   6.632   0.583   2.011  0.7703  0.1325 -0.3147
 3603SOL    HW111401   6.665   0.665   1.973  0.5894  0.1976 -0.3301
 3603SOL    HW211402   6.611   0.528   1.935  0.3166  0.2987 -0.3127
 3604SOL     OW11403   0.750   1.925   1.526  0.6551 -0.3163 -0.4415
 3604SOL    HW111404   0.669   1.911   1.576 -0.4440  0.5434 -1.9012
 3604SOL    HW211405   0.759   2.020   1.522  2.8078 -0.3563  1.2714
 3605SOL     OW11406   1.487   2.143   0.275  0.3874 -0.0770  0.0021
 3605SOL    HW111407   1.392   2.150   0.279  0.3346 -0.5215 -0.3346
 3605SOL    HW211408   1.506   2.056   0.310  0.4713 -0.9414 -2.0400
 3606SOL     OW11409   7.060   0.189   2.240 -0.1373 -0.0259  0.8053
 3606SOL    HW111410   7.145   0.174   2.280  0.4079  0.3504 -0.1890
 3606SOL    HW211411   7.079   0.210   2.149 -1.2797  0.2878  0.6190
 3607SOL     OW11412   6.295   2.322   2.115 -0.1852  0.0344  0.0325
 3607SOL    HW111413   6.361   2.392   2.117  0.7288 -0.7659 -0.9784
 3607SOL    HW211414   6.239   2.344   2.040 -1.6007  1.1456  1.3633
 3608SOL     OW11415   4.978   4.713   0.088  0.6539 -0.1619 -0.1589
 3608SOL    HW111416   5.051   4.766   0.119  0.7018  0.8163 -1.7783
 3608SOL    HW211417   5.016   4.628   0.068  1.2943  0.2297 -0.6483
 3609SOL     OW11418   6.881   0.520   0.098  0.2473  0.3589 -0.4483
 3609SOL    HW111419   6.852   0.610   0.079 -4.3834 -0.3361  1.8292
 3609SOL    HW211420   6.909   0.524   0.190  1.1314 -0.3779 -0.6740
 3610SOL     OW11421   0.345   2.355   2.794 -0.1304  0.0573 -0.2685
 3610SOL    HW111422   0.316   2.285   2.735  2.6994 -0.8900 -0.6531
 3610SOL    HW211423   0.316   2.327   2.881 -1.3672 -0.2252 -0.7521
 3611SOL     OW11424   6.887   0.642   0.356  0.6733 -0.1058  0.3892
 3611SOL    HW111425   6.869   0.730   0.387  0.6612  0.2964 -0.7416
 3611SOL    HW211426   6.817   0.588   0.394  1.2317  0.1635  1.8942
 3612SOL     OW11427   5.896   5.418   1.424  0.5541  0.1959 -0.0228
 3612SOL    HW111428   5.954   5.386   1.493  0.2474  0.8371  0.5396
 3612SOL    HW211429   5.858   5.498   1.459 -1.3816 -0.6871 -0.0157
 3613SOL     OW11430   6.394   5.278   2.845 -0.1509 -0.7532  0.6268
 3613SOL    HW111431   6.393   5.350   2.781 -1.3739 -1.6387 -0.4222
 3613SOL    HW211432   6.310   5.285   2.890 -0.5280 -1.8324  0.1233
 3614SOL     OW11433   6.233   5.241   2.158  0.3730  0.2142 -0.9367
 3614SOL    HW111434   6.153   5.194   2.181  1.8892 -1.3489  1.5702
 3614SOL    HW211435   6.237   5.314   2.219  0.9828  0.1361 -0.8766
 3615SOL     OW11436   6.090   0.269   2.198  0.0628 -0.0402 -0.2884
 3615SOL    HW111437   6.185   0.255   2.203 -0.1780 -2.1569 -0.4665
 3615SOL    HW211438   6.063   0.282   2.289  0.5193  0.7268 -0.2495
 3616SOL     OW11439   5.711   0.236   3.096  0.0749  0.6470 -0.0129
 3616SOL    HW111440   5.770   0.186   3.039  0.3374  0.1907  0.6513
 3616SOL    HW211441   5.623   0.213   3.066  0.2081  0.2391 -0.0877
 3617SOL     OW11442   0.044   1.905   2.040 -0.0448 -0.3949  0.4606
 3617SOL    HW111443  -0.000   1.898   2.125 -1.2880 -2.1836 -0.2796
 3617SOL    HW211444   0.007   1.984   2.001  0.1911  0.1861  1.3914
 3618SOL     OW11445   0.052   1.249   2.096 -0.5034  0.4147 -0.0021
 3618SOL    HW111446   0.038   1.157   2.118  0.8178  0.4460  1.1049
 3618SOL    HW211447   0.087   1.247   2.006  0.0450 -0.2223  0.2128
 3619SOL     OW11448   0.264   2.627   1.219 -0.9529  0.2016 -0.5036
 3619SOL    HW111449   0.330   2.611   1.152  0.8946 -0.9882  1.4793
 3619SOL    HW211450   0.271   2.721   1.238  0.2530  0.0765 -0.2728
 3620SOL     OW11451   0.055   5.406   0.979 -0.1875  0.0444 -0.2174
 3620SOL    HW111452   0.130   5.368   1.025 -0.6209  1.4223  1.7879
 3620SOL    HW211453  -0.021   5.370   1.025 -0.6369  1.3852  0.1584
 3621SOL     OW11454   0.551   0.946   1.560  0.2800 -0.0616 -0.5660
 3621SOL    HW111455   0.546   1.015   1.494 -0.5104  0.6069  0.1826
 3621SOL    HW211456   0.603   0.877   1.518  1.0884  0.9756 -1.3231
 3622SOL     OW11457   6.805   0.278   3.127 -0.1674  0.4146  0.1092
 3622SOL    HW111458   6.865   0.311   3.059  0.6129 -0.0541  0.5554
 3622SOL    HW211459   6.757   0.356   3.156 -0.9679  0.5213 -1.4083
 3623SOL     OW11460   6.345   4.969   3.041 -0.1024  0.1467 -0.0743
 3623SOL    HW111461   6.436   4.998   3.053  0.0538 -0.5354  0.4405
 3623SOL    HW211462   6.296   5.050   3.026  0.5370  0.5492 -0.0310
 3624SOL     OW11463   4.328   1.327   3.182  0.3839 -0.3067 -0.3163
 3624SOL    HW111464   4.277   1.276   3.119  0.3174  1.9900 -2.2655
 3624SOL    HW211465   4.262   1.365   3.240  0.3320 -1.3042  0.3016
 3625SOL     OW11466   6.976   0.278   0.190  0.8829  0.2724  0.3261
 3625SOL    HW111467   7.062   0.317   0.203  1.0424  0.0300  0.0212
 3625SOL    HW211468   6.928   0.342   0.138  1.1654  0.0395 -0.2283
 3626SOL     OW11469   4.177   0.554   2.493 -0.1719 -0.3947 -0.0225
 3626SOL    HW111470   4.253   0.531   2.547 -0.1717 -1.4330 -0.4468
 3626SOL    HW211471   4.215   0.595   2.415 -0.1683  1.0245  0.6805
 3627SOL     OW11472   5.945   1.235   0.162  0.4196  0.2212 -0.5619
 3627SOL    HW111473   5.898   1.292   0.100 -0.9819 -0.0652  0.1947
 3627SOL    HW211474   5.894   1.154   0.164  0.6790  0.0664  0.6402
 3628SOL     OW11475   5.189   0.837   1.317 -0.1432  0.1363  0.4486
 3628SOL    HW111476   5.245   0.891   1.372  0.6955 -0.9836  0.7315
 3628SOL    HW211477   5.177   0.756   1.366 -1.5385  0.1190  0.1260
 3629SOL     OW11478   6.756   0.925   0.170  0.6511  0.2408 -0.3551
 3629SOL    HW111479   6.790   0.890   0.252 -2.2943 -0.6485  0.6272
 3629SOL    HW211480   6.793   1.012   0.163 -0.3315  1.0540  2.9177
 3630SOL     OW11481   6.237   5.123   0.667  0.5611  1.0686 -0.5247
 3630SOL    HW111482   6.307   5.176   0.705 -0.2026  2.2958 -0.7584
 3630SOL    HW211483   6.252   5.128   0.572  2.2307 -1.6548 -0.4829
 3631SOL     OW11484   7.498   0.617   0.677  0.2102 -0.8429  0.1532
 3631SOL    HW111485   7.485   0.526   0.704 -0.8226 -1.0206 -0.8413
 3631SOL    HW211486   7.534   0.611   0.589  0.4732 -0.2784  0.2163
 3632SOL     OW11487   0.628   5.396   1.935 -0.2202  0.2816 -0.7090
 3632SOL    HW111488   0.674   5.398   1.851  0.5402 -0.4980 -0.3347
 3632SOL    HW211489   0.624   5.488   1.962 -3.1500  0.9400 -2.9473
 3633SOL     OW11490   0.246   1.975   3.177 -0.2355  0.3837 -0.1782
 3633SOL    HW111491   0.220   1.911   3.111  2.3906 -2.6285  1.3903
 3633SOL    HW211492   0.165   2.020   3.201 -2.6724 -3.4453 -0.3597
 3634SOL     OW11493   5.497   0.706   3.548  0.7189  0.0499  0.7756
 3634SOL    HW111494   5.557   0.711   3.474  0.6419  1.6626  0.7883
 3634SOL    HW211495   5.424   0.653   3.516  0.9866  0.1801 -0.0723
 3635SOL     OW11496   0.111   1.489   3.361 -0.0297  0.4756 -0.5895
 3635SOL    HW111497   0.197   1.521   3.335  1.2882 -0.6171  2.0656
 3635SOL    HW211498   0.103   1.404   3.318  0.4355  0.3682 -0.4679
 3636SOL     OW11499   6.348   0.610   2.311 -0.3890  0.2660 -0.4511
 3636SOL    HW111500   6.380   0.634   2.398 -1.5405 -0.0052  0.0646
 3636SOL    HW211501   6.412   0.650   2.251  0.4419  0.4315  0.5015
 3637SOL     OW11502   7.312   0.070   2.677 -0.0975 -0.3646  0.4114
 3637SOL    HW111503   7.271  -0.014   2.698 -0.7591  0.2864  1.8277
 3637SOL    HW211504   7.266   0.134   2.732  0.6432  0.8778 -0.3654
 3638SOL     OW11505   6.132   1.609   2.897  0.4823 -0.1008  0.6246
 3638SOL    HW111506   6.043   1.638   2.879  0.7539  0.9414  0.8872
 3638SOL    HW211507   6.161   1.663   2.970  1.1894 -0.7089  0.8050
 3639SOL     OW11508   6.795   1.208   1.599 -0.1559 -0.0959  0.0892
 3639SOL    HW111509   6.807   1.226   1.692  2.2286  0.0234 -0.1904
 3639SOL    HW211510   6.760   1.119   1.597  0.6581 -0.4650  1.0898
 3640SOL     OW11511   7.221   2.916   2.804 -0.2195  0.1119 -0.5307
 3640SOL    HW111512   7.226   3.011   2.795 -0.0559  0.2335  0.6848
 3640SOL    HW211513   7.133   2.893   2.774 -0.2072  0.6253 -0.9688
 3641SOL     OW11514   5.948   0.129   2.996  1.2793  0.0355 -0.1752
 3641SOL    HW111515   5.997   0.113   3.076  1.8634  1.9380 -0.1038
 3641SOL    HW211516   5.947   0.225   2.987 -0.1773 -0.0681 -1.5709
 3642SOL     OW11517   5.784   1.386   3.511 -0.5184  0.4107  0.0727
 3642SOL    HW111518   5.803   1.329   3.436 -2.1064  0.5800 -0.5050
 3642SOL    HW211519   5.800   1.475   3.479  0.1244  0.4017  0.3689
 3643SOL     OW11520   7.094   1.148   1.765  0.4548  0.1048 -0.4055
 3643SOL    HW111521   7.017   1.188   1.805 -0.0106 -2.0593  1.0486
 3643SOL    HW211522   7.129   1.090   1.832  4.8724  2.6939 -0.1276
 3644SOL     OW11523   6.816   1.796   2.271 -0.1409  0.5661 -0.0374
 3644SOL    HW111524   6.838   1.888   2.262 -0.8462  0.6102 -1.8316
 3644SOL    HW211525   6.873   1.751   2.208  0.2855 -0.2501  0.9025
 3645SOL     OW11526   6.706   0.894   1.887 -0.5429  0.1138 -0.3762
 3645SOL    HW111527   6.622   0.889   1.839 -0.7338 -1.2587  0.0451
 3645SOL    HW211528   6.772   0.902   1.818 -0.8862 -0.9152 -0.8538
 3646SOL     OW11529   6.824   3.037   2.156 -0.2273 -0.0633 -0.0319
 3646SOL    HW111530   6.861   3.059   2.242 -1.0337  0.1770  0.2608
 3646SOL    HW211531   6.863   2.952   2.135  2.0265  1.0544 -0.6542
 3647SOL     OW11532   6.181   0.263   1.919 -0.2098 -0.0938 -0.9187
 3647SOL    HW111533   6.127   0.284   1.995 -0.9619 -1.5625 -1.0019
 3647SOL    HW211534   6.120   0.264   1.845  0.3291  0.4106 -1.3667
 3648SOL     OW11535   6.589   3.638   2.865 -0.2859 -1.1929  0.3536
 3648SOL    HW111536   6.534   3.567   2.899 -0.7745 -0.6561  0.6890
 3648SOL    HW211537   6.610   3.691   2.942 -2.8806  1.0661 -0.3784
 3649SOL     OW11538   4.923   0.012   1.551  0.2604  0.2919  0.8178
 3649SOL    HW111539   4.850  -0.006   1.609 -1.2933 -0.0712 -1.1626
 3649SOL    HW211540   4.982  -0.063   1.563 -0.2890 -0.0458  1.4945
 3650SOL     OW11541   6.989   1.797   0.280  0.5235  0.1321 -0.3246
 3650SOL    HW111542   6.948   1.743   0.347  0.9677  0.5101  0.2508
 3650SOL    HW211543   7.025   1.872   0.327 -0.0935  0.9497 -1.1131
 3651SOL     OW11544   6.722   1.396   2.888 -0.3321  0.4273 -0.3154
 3651SOL    HW111545   6.684   1.411   2.801 -3.0989  0.2448  0.7383
 3651SOL    HW211546   6.782   1.323   2.876 -1.2262 -0.1014 -1.9362
 3652SOL     OW11547   6.009   0.173   1.727 -0.2510  0.1927 -0.6104
 3652SOL    HW111548   5.931   0.209   1.684  0.5718  0.9041 -1.5631
 3652SOL    HW211549   6.004   0.079   1.711 -0.1639  0.3993 -1.9749
 3653SOL     OW11550   6.979   0.786   2.615  0.5935  0.0295 -0.8335
 3653SOL    HW111551   6.893   0.777   2.575  0.4436 -1.3999 -0.2468
 3653SOL    HW211552   7.030   0.838   2.552 -0.9330  1.6683 -0.7813
 3654SOL     OW11553   6.354   1.499   2.783 -0.8326  0.0072  0.1909
 3654SOL    HW111554   6.287   1.565   2.802 -1.0699 -0.3598  0.6661
 3654SOL    HW211555   6.399   1.486   2.867 -1.4090 -1.1217  0.3416
 3655SOL     OW11556   0.322   1.650   3.116 -0.3130  0.5306 -0.4627
 3655SOL    HW111557   0.355   1.668   3.204 -1.7187  0.8469  0.0261
 3655SOL    HW211558   0.339   1.557   3.102 -0.1312  0.4642  0.1748
 3656SOL     OW11559   5.917   5.226   1.197 -0.4233 -0.7185 -0.1648
 3656SOL    HW111560   5.827   5.196   1.208  0.0677 -1.9109  0.8111
 3656SOL    HW211561   5.921   5.309   1.244 -0.9992 -0.6947 -0.1577
 3657SOL     OW11562   7.436   0.265   3.115 -0.1934  0.0420  0.4514
 3657SOL    HW111563   7.377   0.340   3.108 -0.5941 -0.4056 -1.6914
 3657SOL    HW211564   7.385   0.191   3.083  0.6052 -0.9275  1.3467
 3658SOL     OW11565   5.977   0.983   2.503 -0.1316 -0.4933  0.4210
 3658SOL    HW111566   6.000   0.934   2.424 -0.8314 -0.9003  0.4544
 3658SOL    HW211567   5.898   0.940   2.535 -0.9105  0.8112  0.3276
 3659SOL     OW11568   7.120   0.054   0.161 -0.3757  0.6729  0.6347
 3659SOL    HW111569   7.051   0.119   0.147 -1.5605 -0.5515  0.6969
 3659SOL    HW211570   7.116  -0.002   0.084  0.9710  0.9297  0.3491
 3660SOL     OW11571   6.006   1.719   2.480  0.1315  0.3395  0.4203
 3660SOL    HW111572   5.999   1.788   2.545  0.0649  0.8177 -0.0865
 3660SOL    HW211573   6.097   1.722   2.450  0.5530 -0.8229  1.5050
 3661SOL     OW11574   5.934   1.092   0.632 -0.2739 -0.2054 -0.3589
 3661SOL    HW111575   5.949   1.030   0.703  0.7224  0.9131  0.4341
 3661SOL    HW211576   5.884   1.163   0.672 -1.3002 -0.4129 -1.2293
 3662SOL     OW11577   5.140   0.562   3.206  0.4016  0.2786  0.2258
 3662SOL    HW111578   5.047   0.572   3.186  0.2814 -0.5258  0.3800
 3662SOL    HW211579   5.184   0.623   3.146 -0.1511 -0.1042 -0.5823
 3663SOL     OW11580   5.597   1.255   2.595 -0.1493  0.3607  0.5403
 3663SOL    HW111581   5.580   1.262   2.501 -2.3262  0.2364  0.8685
 3663SOL    HW211582   5.691   1.240   2.602  0.0434  0.3441 -1.6150
 3664SOL     OW11583   0.097   0.996   2.922 -0.2946 -0.4167  0.4327
 3664SOL    HW111584   0.113   0.915   2.873  2.0205  0.1774  0.1157
 3664SOL    HW211585   0.134   0.980   3.008 -1.3014 -0.2472  0.9087
 3665SOL     OW11586   6.873   0.171   1.419 -0.1107  0.1307 -0.3044
 3665SOL    HW111587   6.896   0.099   1.477 -0.5879  1.8292  2.1661
 3665SOL    HW211588   6.952   0.187   1.368  0.3301 -1.4380 -0.1724
 3666SOL     OW11589   6.945   2.846   2.666  0.5834 -0.4569 -0.0311
 3666SOL    HW111590   6.855   2.879   2.659  0.7888  0.2307  0.4840
 3666SOL    HW211591   6.935   2.753   2.686 -0.0279 -0.2119  0.8509
 3667SOL     OW11592   5.702   0.149   0.301 -0.3516 -0.0480 -0.3051
 3667SOL    HW111593   5.706   0.120   0.392  1.2024 -0.0566 -0.3527
 3667SOL    HW211594   5.674   0.072   0.253  0.9622 -0.6991 -0.0778
 3668SOL     OW11595   7.332   2.397   2.680  0.5878 -0.4096  0.1451
 3668SOL    HW111596   7.356   2.304   2.683  1.0850 -0.3087 -0.4281
 3668SOL    HW211597   7.372   2.434   2.758  2.1095 -0.3075 -0.6328
 3669SOL     OW11598   5.771   4.284   0.580 -0.1243  0.2844  0.5487
 3669SOL    HW111599   5.748   4.257   0.491  1.5347  1.3015 -0.2364
 3669SOL    HW211600   5.688   4.313   0.618 -0.4817  2.9651 -1.8348
 3670SOL     OW11601   5.288   2.839   0.883 -0.0890 -0.1325 -0.7500
 3670SOL    HW111602   5.345   2.767   0.911 -0.9144 -1.0724 -1.4043
 3670SOL    HW211603   5.327   2.917   0.922 -0.7649 -1.2237  2.3798
 3671SOL     OW11604   7.337   1.796   2.690 -0.0656  0.5942  0.3936
 3671SOL    HW111605   7.260   1.836   2.652 -0.8198  1.3976  2.5958
 3671SOL    HW211606   7.316   1.787   2.783  1.0030 -2.7744  0.4310
 3672SOL     OW11607   6.967   1.297   2.355  0.1280 -0.4837  0.3993
 3672SOL    HW111608   6.984   1.308   2.449  0.5370 -2.1564  0.5500
 3672SOL    HW211609   6.939   1.206   2.346  0.9134 -0.5955 -1.2242
 3673SOL     OW11610   0.542   0.123   2.390 -0.3060  0.1872  0.1422
 3673SOL    HW111611   0.589   0.186   2.335 -2.0460  1.1922 -0.2716
 3673SOL    HW211612   0.467   0.172   2.424 -1.3749 -1.4867  0.3225
 3674SOL     OW11613   0.381   0.125   3.381 -0.0589 -0.0448 -0.1838
 3674SOL    HW111614   0.305   0.174   3.350 -0.6267 -0.0275  1.1445
 3674SOL    HW211615   0.437   0.117   3.305 -0.8746  0.9352 -0.9206
 3675SOL     OW11616   6.256   2.220   1.331 -0.0865  0.1244 -0.1966
 3675SOL    HW111617   6.301   2.150   1.284 -0.1013 -0.2989  0.4091
 3675SOL    HW211618   6.244   2.186   1.419 -1.7358  0.1852 -0.3792
 3676SOL     OW11619   6.439   1.224   2.707 -0.0874 -0.0311  0.5286
 3676SOL    HW111620   6.403   1.305   2.743 -2.6265 -1.5866  1.7249
 3676SOL    HW211621   6.390   1.210   2.626  0.8467 -0.0338 -0.0499
 3677SOL     OW11622   7.150   5.215   2.424  0.0332  0.1397  0.4258
 3677SOL    HW111623   7.181   5.190   2.511 -0.5947 -0.4673  0.4855
 3677SOL    HW211624   7.227   5.250   2.380  0.9842 -1.8946  0.3610
 3678SOL     OW11625   6.297   4.949   1.444  0.7579  0.2588 -0.4416
 3678SOL    HW111626   6.312   5.018   1.379  0.4896 -0.4963 -1.3103
 3678SOL    HW211627   6.202   4.947   1.456  0.8910  1.6191  1.3471
 3679SOL     OW11628   1.827   1.891   3.376 -0.2346 -0.4391 -0.7433
 3679SOL    HW111629   1.872   1.975   3.376 -0.6806 -0.1957 -0.5156
 3679SOL    HW211630   1.852   1.850   3.459  1.5591 -1.4096 -1.6880
 3680SOL     OW11631   4.556   0.376   2.316  0.0387  0.0595  0.0934
 3680SOL    HW111632   4.496   0.450   2.310 -0.4992 -0.3523  0.3675
 3680SOL    HW211633   4.506   0.301   2.285  0.2444 -0.3809  0.8042
 3681SOL     OW11634   0.146   1.005   2.415 -0.5121  0.0364  0.7596
 3681SOL    HW111635   0.182   0.981   2.329  1.3463  0.4798  1.3670
 3681SOL    HW211636   0.052   0.991   2.406 -0.2945 -0.5280 -1.1517
 3682SOL     OW11637   0.487   0.588   1.208 -0.5589 -0.0839  0.4641
 3682SOL    HW111638   0.508   0.593   1.115  0.2533 -0.1186  0.6467
 3682SOL    HW211639   0.476   0.680   1.234 -1.1668 -0.0892  0.2585
 3683SOL     OW11640   5.787   4.580   2.377 -0.1851  0.5584 -0.1161
 3683SOL    HW111641   5.794   4.658   2.431 -4.1928  1.8124 -1.0712
 3683SOL    HW211642   5.745   4.514   2.433 -1.6227  0.8878 -0.7638
 3684SOL     OW11643   0.859   2.590   3.417  0.3500  0.4879  0.4053
 3684SOL    HW111644   0.848   2.619   3.507  2.3499  1.1037  0.5086
 3684SOL    HW211645   0.864   2.671   3.366  2.1730  0.2786  0.1770
 3685SOL     OW11646   6.562   0.588   3.127 -0.0217  0.3834 -0.1459
 3685SOL    HW111647   6.511   0.584   3.046  1.1652 -3.2938 -0.9197
 3685SOL    HW211648   6.650   0.613   3.099  0.5583 -1.5504 -0.1990
 3686SOL     OW11649   6.936   0.759   1.220  0.2298  0.0525  0.1089
 3686SOL    HW111650   6.846   0.751   1.253 -0.5925 -2.1701 -2.2904
 3686SOL    HW211651   6.968   0.669   1.215  1.9717  0.6683 -0.7049
 3687SOL     OW11652   0.353   4.987   2.896  0.2369  0.1695  0.4057
 3687SOL    HW111653   0.343   4.897   2.864 -0.8894 -0.0812  1.4070
 3687SOL    HW211654   0.404   5.030   2.827  0.6394 -1.1703 -0.1901
 3688SOL     OW11655   0.511   1.998   3.196 -0.2591  0.4785  0.1088
 3688SOL    HW111656   0.540   1.951   3.273 -0.1577  3.6442  2.2108
 3688SOL    HW211657   0.416   1.984   3.193 -0.3214  0.6200  1.0820
 3689SOL     OW11658   6.579   1.323   1.279 -0.2034  0.3135 -0.4677
 3689SOL    HW111659   6.544   1.351   1.195  0.2315  1.5908 -0.2483
 3689SOL    HW211660   6.501   1.306   1.333 -0.4795 -0.2631 -1.0413
 3690SOL     OW11661   5.604   2.770   3.194  0.0744  0.2397 -0.4741
 3690SOL    HW111662   5.606   2.861   3.167  0.7199 -0.2812 -2.2879
 3690SOL    HW211663   5.519   2.738   3.165 -0.1651  0.2580  0.1892
 3691SOL     OW11664   6.653   0.111   0.411 -0.0218  0.6698 -0.1760
 3691SOL    HW111665   6.747   0.090   0.410  0.4698  2.6707 -1.2416
 3691SOL    HW211666   6.643   0.170   0.485 -0.0172  2.0413 -1.2320
 3692SOL     OW11667   7.504   0.998   2.151  0.1445 -0.1939 -0.1104
 3692SOL    HW111668   7.591   0.957   2.151  0.4166  0.3335  1.0459
 3692SOL    HW211669   7.443   0.926   2.139  0.6853 -0.7631  0.4679
 3693SOL     OW11670   6.838   0.152   1.748 -0.0038 -0.4092 -0.5310
 3693SOL    HW111671   6.858   0.129   1.657 -0.0479 -0.3535 -0.5545
 3693SOL    HW211672   6.852   0.070   1.797 -3.9391 -1.7134 -1.1610
 3694SOL     OW11673   5.032   1.132   2.808 -0.4726  0.1634  0.0459
 3694SOL    HW111674   4.976   1.058   2.830  0.8065 -0.7332  0.3919
 3694SOL    HW211675   4.971   1.201   2.783 -1.7295 -0.7440  0.4805
 3695SOL     OW11676   7.309   2.359   2.406 -0.0449 -0.4342 -0.0245
 3695SOL    HW111677   7.400   2.338   2.385  0.1876 -2.5448  2.5454
 3695SOL    HW211678   7.308   2.367   2.501 -2.5524 -0.5366  0.0135
 3696SOL     OW11679   6.309   3.287   3.545 -0.2014 -0.3549  0.1185
 3696SOL    HW111680   6.278   3.358   3.602 -0.2370  0.4981 -0.9355
 3696SOL    HW211681   6.399   3.311   3.523  0.1471 -1.1857  0.5824
 3697SOL     OW11682   7.272   1.873   0.293  0.1139 -0.1752 -0.3121
 3697SOL    HW111683   7.293   1.883   0.385  0.5742  0.8682 -0.5164
 3697SOL    HW211684   7.278   1.961   0.257 -0.5766 -0.4851 -1.2355
 3698SOL     OW11685   6.060   4.639   0.072 -0.0155 -0.4430 -0.3789
 3698SOL    HW111686   6.073   4.619   0.165  0.8525  0.5057 -0.2767
 3698SOL    HW211687   6.025   4.728   0.072 -0.6727 -0.6962 -0.9436
 3699SOL     OW11688   7.455   3.828   2.495  0.1622 -0.3025  0.5248
 3699SOL    HW111689   7.438   3.779   2.415  0.3946 -1.4590  1.1536
 3699SOL    HW211690   7.506   3.768   2.549 -0.4013  0.2643  1.7287
 3700SOL     OW11691   6.588   2.440   0.463  0.2047 -0.1152  0.4063
 3700SOL    HW111692   6.635   2.458   0.382  0.3406  1.7674  0.8726
 3700SOL    HW211693   6.598   2.519   0.515 -0.1736 -1.1538  2.1382
 3701SOL     OW11694   0.810   3.001   3.485  0.5149 -0.2743 -0.3056
 3701SOL    HW111695   0.754   2.951   3.544  0.5780  0.3430  0.2885
 3701SOL    HW211696   0.832   2.939   3.415 -1.4623 -0.3376 -0.9252
 3702SOL     OW11697   6.297   3.199   1.356 -0.8744  0.0573  0.2221
 3702SOL    HW111698   6.224   3.260   1.348 -1.6975 -0.7965  1.0416
 3702SOL    HW211699   6.257   3.114   1.369  0.2423 -0.8712 -1.8649
 3703SOL     OW11700   6.057   2.775   0.911 -0.4796  0.2488  0.0428
 3703SOL    HW111701   6.043   2.760   1.004 -1.5131 -0.1978 -0.1733
 3703SOL    HW211702   6.055   2.870   0.901  0.0942  0.3173  0.5355
 3704SOL     OW11703   5.903   2.145   3.383 -0.5292  0.1561 -0.3971
 3704SOL    HW111704   5.989   2.101   3.378 -0.7792 -0.2233 -2.3516
 3704SOL    HW211705   5.881   2.144   3.476  0.0615 -2.7981 -0.1804
 3705SOL     OW11706   6.650   4.182   1.931 -0.6742 -0.6873 -0.0192
 3705SOL    HW111707   6.559   4.198   1.907 -0.1332  2.5958 -0.4570
 3705SOL    HW211708   6.646   4.122   2.005 -3.0614 -1.9424 -1.0641
 3706SOL     OW11709   4.789   3.670   2.544 -0.8047 -0.0736  0.4722
 3706SOL    HW111710   4.883   3.652   2.550 -1.0642 -1.0469  2.9903
 3706SOL    HW211711   4.779   3.761   2.571 -0.4924  0.4914 -1.2288
 3707SOL     OW11712   0.262   3.418   1.579  0.0266 -0.4348  0.5668
 3707SOL    HW111713   0.258   3.326   1.552  1.9251 -0.5847  0.6690
 3707SOL    HW211714   0.210   3.465   1.514  1.1368 -1.2936 -0.9901
 3708SOL     OW11715   5.410   3.125   0.328  0.4982  0.3651  0.3710
 3708SOL    HW111716   5.327   3.092   0.362  0.8213 -0.1683  0.6576
 3708SOL    HW211717   5.444   3.055   0.273  0.9245  0.4372  0.5375
 3709SOL     OW11718   1.010   3.956   3.188  0.3122  0.0208  0.0053
 3709SOL    HW111719   0.992   3.862   3.193  0.6022  0.0020  0.8672
 3709SOL    HW211720   1.046   3.969   3.100 -1.0397 -0.4345 -0.6340
 3710SOL     OW11721   4.947   2.685   3.268 -0.4543  0.4612  0.4037
 3710SOL    HW111722   4.986   2.655   3.186  0.5347 -0.3788  1.1580
 3710SOL    HW211723   4.987   2.771   3.283 -0.4273  0.4929  0.1575
 3711SOL     OW11724   6.680   3.722   2.419  0.1256 -0.2678 -0.1594
 3711SOL    HW111725   6.721   3.636   2.429  0.3231 -0.2512 -0.7759
 3711SOL    HW211726   6.752   3.785   2.426 -0.3397  0.0844  3.1351
 3712SOL     OW11727   5.693   3.736   1.022 -0.3336 -0.0377 -0.0522
 3712SOL    HW111728   5.668   3.705   0.935 -1.9791 -2.4242  1.1955
 3712SOL    HW211729   5.617   3.786   1.052 -0.1072  0.0612  0.3551
 3713SOL     OW11730   5.480   1.956   3.202  0.2346 -0.4155  0.4419
 3713SOL    HW111731   5.532   1.949   3.282  0.7371 -1.7506  0.0216
 3713SOL    HW211732   5.544   1.983   3.135  0.5885 -2.6222 -0.2012
 3714SOL     OW11733   7.230   3.741   2.039  0.3363  0.0392 -0.4593
 3714SOL    HW111734   7.226   3.648   2.061  0.3692  0.3753  1.0118
 3714SOL    HW211735   7.160   3.752   1.974 -0.4548 -0.7843  0.2112
 3715SOL     OW11736   5.600   3.377   0.959  0.2583  0.2395 -0.7235
 3715SOL    HW111737   5.510   3.398   0.983  0.6744 -0.1670  1.3515
 3715SOL    HW211738   5.618   3.293   1.001  1.1824 -0.3931 -2.2783
 3716SOL     OW11739   6.994   3.561   2.240 -0.1247 -0.5645  0.2401
 3716SOL    HW111740   6.935   3.618   2.190  1.6375  1.7832  0.7016
 3716SOL    HW211741   6.943   3.481   2.252 -2.8723  0.9573 -0.2079
 3717SOL     OW11742   6.709   2.546   2.928 -0.3487 -0.3317 -0.7217
 3717SOL    HW111743   6.713   2.628   2.979  0.6361 -0.9238  0.1969
 3717SOL    HW211744   6.624   2.508   2.952  0.0958 -0.6004  0.5207
 3718SOL     OW11745   6.573   3.678   0.264 -0.2064 -0.6422 -0.5129
 3718SOL    HW111746   6.491   3.718   0.235  0.1202 -0.6664 -1.5139
 3718SOL    HW211747   6.631   3.684   0.188  0.9916  0.0855  0.4228
 3719SOL     OW11748   5.526   4.032   1.867  0.1228 -0.2114 -0.0358
 3719SOL    HW111749   5.479   4.078   1.798  0.6581  0.6112  0.1394
 3719SOL    HW211750   5.619   4.043   1.846  0.2628 -1.4307 -0.1264
 3720SOL     OW11751   1.016   2.393   1.148 -0.0419  0.7794  0.5013
 3720SOL    HW111752   1.043   2.311   1.189 -1.8831  0.9114  2.1184
 3720SOL    HW211753   1.061   2.461   1.197 -0.1513  0.8213  0.5448
 3721SOL     OW11754   7.159   2.774   1.238  0.5270 -0.0365 -0.0458
 3721SOL    HW111755   7.083   2.717   1.225 -0.2725  0.8222  0.6829
 3721SOL    HW211756   7.155   2.798   1.331  1.6690  0.0634 -0.0085
 3722SOL     OW11757   5.576   4.280   2.296 -0.3317  0.2471  0.1340
 3722SOL    HW111758   5.608   4.200   2.255 -0.3218 -0.1133  0.8314
 3722SOL    HW211759   5.489   4.257   2.328 -1.0697  1.0345 -1.1898
 3723SOL     OW11760   4.743   2.906   0.837  0.1707  0.1067  0.4547
 3723SOL    HW111761   4.831   2.869   0.844  0.4633  0.6730 -0.0561
 3723SOL    HW211762   4.757   2.993   0.799 -0.4513  0.8785  1.9020
 3724SOL     OW11763   7.323   3.871   1.683 -0.4811 -0.3117 -0.4884
 3724SOL    HW111764   7.277   3.812   1.742  0.4850 -0.8493 -0.2433
 3724SOL    HW211765   7.291   3.958   1.706 -2.6038 -0.7816 -1.4749
 3725SOL     OW11766   7.188   2.203   2.187  0.3671 -0.2548  0.7294
 3725SOL    HW111767   7.207   2.201   2.093 -2.9061  0.5862 -0.1093
 3725SOL    HW211768   7.244   2.273   2.221  0.2781  0.7476 -1.0240
 3726SOL     OW11769   5.798   3.639   1.522  0.3289 -0.5212 -0.1708
 3726SOL    HW111770   5.794   3.712   1.584  0.8304 -0.7233  0.1092
 3726SOL    HW211771   5.771   3.676   1.439 -3.7502 -0.9640  0.7421
 3727SOL     OW11772   7.223   4.229   0.498  0.0751  0.3384 -0.4054
 3727SOL    HW111773   7.245   4.151   0.448 -0.6752 -0.8845  1.0996
 3727SOL    HW211774   7.305   4.251   0.544 -0.2106 -0.7692  0.6917
 3728SOL     OW11775   4.660   4.317   2.405 -0.2637  0.3133 -0.0740
 3728SOL    HW111776   4.609   4.280   2.477  2.3234  1.8502  2.7710
 3728SOL    HW211777   4.677   4.242   2.347 -1.9618 -1.1253  1.1749
 3729SOL     OW11778   6.481   0.843   1.722 -0.2125 -0.2789  0.4195
 3729SOL    HW111779   6.473   0.761   1.673 -2.1962  0.3694 -0.4608
 3729SOL    HW211780   6.526   0.903   1.662 -0.2513 -0.2538  0.4151
 3730SOL     OW11781   6.509   3.346   0.766  0.2829  0.0893  0.3257
 3730SOL    HW111782   6.493   3.302   0.850  1.1376  0.8950  0.9171
 3730SOL    HW211783   6.423   3.347   0.723 -0.2536  0.0626  1.3748
 3731SOL     OW11784   6.743   3.052   0.579 -0.3009  0.2239 -0.1742
 3731SOL    HW111785   6.715   2.968   0.616 -2.5954  0.9613 -0.1236
 3731SOL    HW211786   6.668   3.082   0.528  0.7554  1.9247 -0.8076
 3732SOL     OW11787   6.982   1.927   0.055  0.5337 -0.1338  0.3201
 3732SOL    HW111788   6.890   1.918   0.030 -0.0923  1.1697  1.9866
 3732SOL    HW211789   7.001   1.847   0.103 -0.1541  0.1579  1.1150
 3733SOL     OW11790   5.913   2.451   1.668 -0.0807  0.2565 -0.5141
 3733SOL    HW111791   5.968   2.375   1.685 -1.0247 -0.3590 -0.1480
 3733SOL    HW211792   5.963   2.503   1.605  0.8560 -0.3439 -0.2821
 3734SOL     OW11793   7.224   4.935   0.251  0.0102 -0.1414  0.0267
 3734SOL    HW111794   7.194   4.910   0.339  0.7887  4.1606  1.7616
 3734SOL    HW211795   7.319   4.935   0.257  0.0572  1.5267 -0.3269
 3735SOL     OW11796   6.049   3.658   1.330 -0.1379  0.1589  0.1400
 3735SOL    HW111797   6.074   3.696   1.246 -0.2140  1.2335  0.5837
 3735SOL    HW211798   5.955   3.672   1.335 -0.1383  0.0670  0.3828
 3736SOL     OW11799   6.469   3.288   1.693 -0.4233 -0.0574  0.5414
 3736SOL    HW111800   6.428   3.276   1.778 -1.2085 -0.7258  0.0875
 3736SOL    HW211801   6.560   3.260   1.706 -1.1626 -2.7109  0.5730
 3737SOL     OW11802   5.501   2.863   2.113  0.2467 -0.2538 -0.3824
 3737SOL    HW111803   5.508   2.860   2.208  0.8747  0.7485 -0.3914
 3737SOL    HW211804   5.410   2.886   2.097  0.0174 -0.8844 -0.0445
 3738SOL     OW11805   6.770   3.242   0.798 -0.0759 -0.1240  0.1230
 3738SOL    HW111806   6.780   3.180   0.726 -1.7507 -1.9187  1.3364
 3738SOL    HW211807   6.691   3.291   0.778  1.2937  1.8268 -0.8831
 3739SOL     OW11808   6.992   2.492   0.623  0.2681 -0.0036 -0.2345
 3739SOL    HW111809   6.983   2.475   0.717  1.1636  0.0436 -0.1360
 3739SOL    HW211810   7.073   2.449   0.598  0.4211  0.6157 -0.8392
 3740SOL     OW11811   5.514   2.137   0.834  0.3460  0.1211 -0.5890
 3740SOL    HW111812   5.593   2.190   0.850 -0.0307  0.3438  0.6802
 3740SOL    HW211813   5.541   2.073   0.769  1.5894  0.2037 -0.1871
 3741SOL     OW11814   6.191   4.309   1.490  0.5556 -0.2015  0.4506
 3741SOL    HW111815   6.284   4.308   1.466  0.1920 -0.2498 -1.0341
 3741SOL    HW211816   6.175   4.222   1.526  1.1391 -0.1011  0.9739
 3742SOL     OW11817   0.663   0.782   0.798  0.0628  0.0220  0.1798
 3742SOL    HW111818   0.702   0.795   0.885  3.3859  0.8158 -1.2583
 3742SOL    HW211819   0.686   0.861   0.750 -0.1398 -1.1352 -1.9158
 3743SOL     OW11820   0.889   4.070   2.222 -0.1993  0.1380 -0.4745
 3743SOL    HW111821   0.807   4.024   2.205  0.9106 -1.8860 -0.6835
 3743SOL    HW211822   0.951   4.030   2.161  1.0472  1.3262 -0.0262
 3744SOL     OW11823   0.284   3.282   0.382 -0.0835 -0.3285  0.4907
 3744SOL    HW111824   0.252   3.192   0.374  1.9624 -1.0285 -0.4635
 3744SOL    HW211825   0.348   3.291   0.312  1.2356  1.2210  1.8152
 3745SOL     OW11826   5.871   1.828   3.275 -0.3039 -0.0523 -0.2878
 3745SOL    HW111827   5.914   1.904   3.235 -0.2952 -0.6783 -1.4950
 3745SOL    HW211828   5.806   1.866   3.334  1.3376  0.9114  1.0045
 3746SOL     OW11829   6.071   3.211   3.379  0.1689 -0.0424  0.0097
 3746SOL    HW111830   6.132   3.244   3.446  1.6286  1.3550 -1.9056
 3746SOL    HW211831   5.998   3.272   3.380  1.5768  1.8102 -1.6094
 3747SOL     OW11832   6.291   3.934   1.778  0.2009 -0.0882 -0.4179
 3747SOL    HW111833   6.287   3.847   1.740  0.6193  0.0590 -0.8082
 3747SOL    HW211834   6.354   3.926   1.850  0.0602 -0.1639 -0.3040
 3748SOL     OW11835   5.988   3.592   0.909  0.1617  0.2987  0.5475
 3748SOL    HW111836   6.047   3.632   0.973  0.6936 -0.6477  0.6776
 3748SOL    HW211837   5.923   3.660   0.889  1.7667  1.6729 -0.2319
 3749SOL     OW11838   7.236   4.193   2.615  0.7008 -0.3663  0.2516
 3749SOL    HW111839   7.204   4.147   2.537  2.0610 -0.8465 -0.0563
 3749SOL    HW211840   7.300   4.132   2.653  0.0407 -0.1513  1.7662
 3750SOL     OW11841   7.337   4.273   0.200  0.6371  0.2788  0.5021
 3750SOL    HW111842   7.406   4.338   0.190  2.1833 -1.4214 -0.2883
 3750SOL    HW211843   7.377   4.201   0.248 -0.5726 -0.7711  0.0171
 3751SOL     OW11844   6.764   3.369   0.174  0.2064 -0.3313  0.1400
 3751SOL    HW111845   6.681   3.387   0.218 -1.2912 -1.0129 -2.1628
 3751SOL    HW211846   6.821   3.441   0.199 -1.2213  0.4143  1.4557
 3752SOL     OW11847   5.059   4.600   2.137 -0.2014 -0.2371  0.2085
 3752SOL    HW111848   4.985   4.570   2.190 -1.1658  0.6729 -0.5910
 3752SOL    HW211849   5.090   4.521   2.092 -0.7950 -0.5976  0.4189
 3753SOL     OW11850   0.036   4.665   3.478  0.4634  0.0246 -0.3029
 3753SOL    HW111851  -0.008   4.713   3.408 -1.3812  0.5725  1.1695
 3753SOL    HW211852  -0.003   4.577   3.474 -0.4532  0.3676  0.6839
 3754SOL     OW11853   0.540   2.582   2.926  0.5340  0.3785  0.5776
 3754SOL    HW111854   0.572   2.641   2.857  2.8102 -1.0859  0.2651
 3754SOL    HW211855   0.485   2.519   2.879 -1.1474  1.6405  0.7721
 3755SOL     OW11856   6.425   3.477   2.979 -0.5890  0.5039 -0.3678
 3755SOL    HW111857   6.424   3.489   3.074 -0.4584  2.0639 -0.5290
 3755SOL    HW211858   6.365   3.405   2.963  0.3488 -0.6235  0.9891
 3756SOL     OW11859   6.752   3.116   0.007  0.0533 -0.0239 -0.3791
 3756SOL    HW111860   6.758   3.180   0.077  0.6439 -1.3882  0.8504
 3756SOL    HW211861   6.726   3.034   0.050 -0.0041 -0.7983 -1.7992
 3757SOL     OW11862   4.573   4.001   0.528  0.0335  0.3069  0.5500
 3757SOL    HW111863   4.516   3.925   0.518  3.1860 -2.1089 -0.7462
 3757SOL    HW211864   4.586   4.009   0.623 -1.0883 -0.0850  0.7561
 3758SOL     OW11865   6.731   3.734   0.956 -0.4423  0.4688 -0.2047
 3758SOL    HW111866   6.765   3.652   0.992 -0.7439  1.2429  1.9630
 3758SOL    HW211867   6.661   3.706   0.897  0.8701 -0.9019 -1.1852
 3759SOL     OW11868   6.587   2.401   3.239 -0.7274  0.0528 -0.0083
 3759SOL    HW111869   6.537   2.378   3.317  0.1077  0.0940  0.5485
 3759SOL    HW211870   6.608   2.494   3.250 -0.8833  0.1456 -0.4453
 3760SOL     OW11871   7.228   2.361   3.046  0.4290  0.8613  0.1011
 3760SOL    HW111872   7.316   2.396   3.032  1.1624  0.1773  2.5372
 3760SOL    HW211873   7.172   2.415   2.990  2.5554 -0.0781 -3.2576
 3761SOL     OW11874   6.526   2.787   2.074 -0.1630  0.4067 -0.0258
 3761SOL    HW111875   6.532   2.864   2.131 -2.0553  0.2487  0.4510
 3761SOL    HW211876   6.605   2.792   2.020 -0.9526  3.6493 -1.1613
 3762SOL     OW11877   5.793   3.865   1.684 -0.0269  0.2293 -0.0219
 3762SOL    HW111878   5.827   3.944   1.641  1.3109 -0.7579 -0.8354
 3762SOL    HW211879   5.702   3.861   1.658  0.6799 -0.2281 -2.6547
 3763SOL     OW11880   4.762   3.757   2.084 -0.9042  0.0811 -0.0605
 3763SOL    HW111881   4.720   3.696   2.023 -2.0745 -0.3656  1.1399
 3763SOL    HW211882   4.830   3.705   2.128  1.1399  0.8482 -2.1237
 3764SOL     OW11883   5.162   3.145   2.528  0.1014  0.3223 -0.5349
 3764SOL    HW111884   5.171   3.139   2.623 -3.5872  2.1688  0.1147
 3764SOL    HW211885   5.193   3.233   2.506  0.2289  0.1831 -0.9256
 3765SOL     OW11886   5.419   4.255   1.683 -0.0281 -0.3272  0.0290
 3765SOL    HW111887   5.496   4.312   1.691 -0.2587  0.0478 -0.4019
 3765SOL    HW211888   5.345   4.315   1.677 -0.3385 -0.6859  0.2387
 3766SOL     OW11889   0.020   2.625   1.361 -0.4861 -0.2428  0.3065
 3766SOL    HW111890   0.101   2.622   1.311  0.2014  2.4025  1.0942
 3766SOL    HW211891  -0.047   2.590   1.301  0.8024 -0.0494 -1.2942
 3767SOL     OW11892   6.794   1.719   0.487 -0.2864 -0.2356 -0.4490
 3767SOL    HW111893   6.722   1.667   0.452 -0.5195 -0.6175  0.5743
 3767SOL    HW211894   6.772   1.809   0.464 -1.4484 -0.2727  0.4333
 3768SOL     OW11895   0.625   3.242   1.123 -0.8634 -0.0464  0.6075
 3768SOL    HW111896   0.676   3.298   1.065 -0.3835 -1.3676 -0.2981
 3768SOL    HW211897   0.609   3.296   1.200  2.5126  0.2516  1.2743
 3769SOL     OW11898   4.751   2.462   2.913 -0.1593 -0.6232 -0.3630
 3769SOL    HW111899   4.713   2.520   2.848  0.4781 -0.5543 -0.6853
 3769SOL    HW211900   4.778   2.384   2.864 -0.5684 -0.9861 -0.0155
 3770SOL     OW11901   5.997   2.771   3.519  0.7095 -0.0742 -0.1767
 3770SOL    HW111902   5.922   2.718   3.546  1.3184 -0.2394  1.2890
 3770SOL    HW211903   5.961   2.837   3.460 -0.6471  0.0767  0.7939
 3771SOL     OW11904   5.349   2.177   2.202 -0.2277  0.3844 -0.2831
 3771SOL    HW111905   5.392   2.252   2.244 -2.1296  0.9713  0.7233
 3771SOL    HW211906   5.371   2.186   2.110 -1.6512  3.1556 -0.4808
 3772SOL     OW11907   7.436   2.791   1.098  0.3459  0.3544 -0.1195
 3772SOL    HW111908   7.397   2.734   1.032  0.6500  0.9866 -0.8698
 3772SOL    HW211909   7.361   2.828   1.145  0.1245 -0.0617 -0.1407
 3773SOL     OW11910   5.017   3.226   0.834  0.3100 -0.2565  0.6223
 3773SOL    HW111911   4.927   3.247   0.858  0.4992 -0.0017  1.1100
 3773SOL    HW211912   5.061   3.310   0.826 -0.1612 -0.1721 -2.4018
 3774SOL     OW11913   5.150   3.766   0.491 -0.3446  0.3477  0.2711
 3774SOL    HW111914   5.081   3.775   0.425  0.0767 -2.2892 -0.6551
 3774SOL    HW211915   5.165   3.671   0.497  2.5049  0.7704  1.1657
 3775SOL     OW11916   7.084   2.552   2.902  0.3636  0.0133 -0.1232
 3775SOL    HW111917   7.032   2.528   2.825  0.2070  4.6984 -1.8450
 3775SOL    HW211918   7.021   2.596   2.959  1.1640 -0.2905  1.0107
 3776SOL     OW11919   6.299   2.433   0.513  0.2688  0.5163  0.5526
 3776SOL    HW111920   6.280   2.340   0.527 -0.3491  0.1576 -2.0389
 3776SOL    HW211921   6.385   2.433   0.471 -0.1699  1.0085 -0.3694
 3777SOL     OW11922   6.198   2.926   0.691  1.0168 -0.7436  0.0399
 3777SOL    HW111923   6.111   2.965   0.704  1.3285  0.0561 -0.1827
 3777SOL    HW211924   6.191   2.839   0.730  0.0759 -0.7436 -0.1010
 3778SOL     OW11925   7.268   3.435   2.226  0.1503  0.3175  0.0079
 3778SOL    HW111926   7.175   3.439   2.204  0.0119  0.7624  0.6466
 3778SOL    HW211927   7.274   3.368   2.295  0.4054 -0.1831 -0.4853
 3779SOL     OW11928   6.592   2.634   0.650  0.0530 -0.1002  0.4434
 3779SOL    HW111929   6.677   2.673   0.628  0.7277 -1.4744  0.4891
 3779SOL    HW211930   6.577   2.660   0.741  1.3096 -1.2922  1.0285
 3780SOL     OW11931   7.396   2.683   3.398  0.0624  0.9220 -0.2247
 3780SOL    HW111932   7.424   2.772   3.378  0.6322  1.3953  2.3585
 3780SOL    HW211933   7.350   2.654   3.319  0.9298  3.0271 -1.5865
 3781SOL     OW11934   5.840   3.317   0.866 -0.2660  0.0172 -0.0218
 3781SOL    HW111935   5.876   3.405   0.873 -0.2743  0.0791 -0.7700
 3781SOL    HW211936   5.750   3.325   0.899 -0.4266  0.3906 -0.5416
 3782SOL     OW11937   7.013   4.175   3.082  0.2508 -0.3447  0.1855
 3782SOL    HW111938   7.049   4.264   3.079 -1.1890  0.3069  0.8981
 3782SOL    HW211939   6.994   4.160   3.174 -0.3252 -1.0487 -0.0341
 3783SOL     OW11940   6.481   2.406   0.778  0.5635 -0.3539 -0.5368
 3783SOL    HW111941   6.552   2.347   0.752  2.8187  2.3425 -0.9721
 3783SOL    HW211942   6.499   2.487   0.730 -1.5688  1.1503  1.0438
 3784SOL     OW11943   6.400   0.832   3.006 -0.0836  0.5183 -0.0441
 3784SOL    HW111944   6.457   0.808   2.933 -0.0733  1.7617 -0.4598
 3784SOL    HW211945   6.377   0.923   2.990  0.8530  1.2089  2.1093
 3785SOL     OW11946   0.381   3.362   1.906  0.4484 -0.4739  0.3441
 3785SOL    HW111947   0.338   3.444   1.881 -0.0529 -0.2293  1.8738
 3785SOL    HW211948   0.320   3.294   1.878  0.1668 -0.2401  0.3733
 3786SOL     OW11949   6.319   4.463   0.425 -0.2259 -0.2149  0.0323
 3786SOL    HW111950   6.341   4.410   0.348  1.6177 -1.3039  1.2264
 3786SOL    HW211951   6.276   4.401   0.484 -3.2850  1.0158 -0.7260
 3787SOL     OW11952   6.495   3.689   2.214  0.3450 -0.1175 -0.2444
 3787SOL    HW111953   6.409   3.722   2.238 -0.4618 -1.7325 -0.7597
 3787SOL    HW211954   6.550   3.705   2.291 -1.1986 -1.8155  1.2924
 3788SOL     OW11955   6.066   3.865   2.747 -0.1115 -0.2603 -0.0297
 3788SOL    HW111956   6.102   3.944   2.707  0.2644  0.4467  1.6147
 3788SOL    HW211957   6.017   3.823   2.676  1.2367  0.4484 -1.4480
 3789SOL     OW11958   6.629   2.674   1.616  0.4841  0.1700  0.0943
 3789SOL    HW111959   6.547   2.670   1.665 -0.4778 -0.2358 -1.4559
 3789SOL    HW211960   6.696   2.690   1.682 -0.6808 -0.7436  1.5797
 3790SOL     OW11961   6.041   2.616   1.495 -0.6724  0.1860  0.3333
 3790SOL    HW111962   6.124   2.585   1.459 -0.6999 -0.4061  0.7620
 3790SOL    HW211963   6.065   2.688   1.554 -0.6921  1.6737 -1.3884
 3791SOL     OW11964   6.709   3.154   1.744 -0.0925  0.0143  0.1895
 3791SOL    HW111965   6.764   3.211   1.691 -0.2848  0.1547  0.1426
 3791SOL    HW211966   6.707   3.195   1.830  1.3015 -0.8927  0.7005
 3792SOL     OW11967   5.479   3.067   0.823 -0.4630 -0.2872  0.4643
 3792SOL    HW111968   5.433   3.145   0.856 -3.2872 -1.6502 -0.0686
 3792SOL    HW211969   5.482   3.079   0.728 -0.9959 -0.8743  0.3729
 3793SOL     OW11970   5.735   2.288   0.856  0.4319 -0.5796  0.5744
 3793SOL    HW111971   5.697   2.357   0.802 -2.6456 -0.9562  2.0265
 3793SOL    HW211972   5.827   2.311   0.864 -0.1084  2.3227 -0.5036
 3794SOL     OW11973   6.076   3.607   1.603  0.2036  0.3219 -0.5759
 3794SOL    HW111974   6.021   3.630   1.528  0.7700  0.1930 -1.0484
 3794SOL    HW211975   6.068   3.512   1.610  1.0778  0.1783 -1.2454
 3795SOL     OW11976   5.192   1.202   0.195 -0.0317  0.0370 -0.4650
 3795SOL    HW111977   5.285   1.188   0.177  0.0653 -0.0230  0.0596
 3795SOL    HW211978   5.159   1.247   0.117  0.6075  0.7642 -0.3308
 3796SOL     OW11979   5.849   2.620   3.127 -0.1787  0.2582  0.2777
 3796SOL    HW111980   5.802   2.539   3.147  0.8777 -0.9645 -1.8297
 3796SOL    HW211981   5.785   2.689   3.146 -0.6587 -0.8842  3.4492
 3797SOL     OW11982   6.991   2.147   0.216  0.4565  0.0111 -0.8498
 3797SOL    HW111983   7.011   2.066   0.169 -0.1825 -0.0756 -0.9812
 3797SOL    HW211984   7.070   2.200   0.206  0.3646 -0.0328 -1.9723
 3798SOL     OW11985   7.474   3.143   0.457  0.2988  0.6334 -0.3821
 3798SOL    HW111986   7.466   3.215   0.395  0.9556  0.1380 -1.0618
 3798SOL    HW211987   7.559   3.103   0.437  0.1382 -0.0585  0.2711
 3799SOL     OW11988   6.731   3.703   0.031 -0.7193  0.3052 -0.0946
 3799SOL    HW111989   6.759   3.795   0.029 -0.9648  0.3845 -1.6040
 3799SOL    HW211990   6.706   3.685  -0.060  1.0278 -1.7712 -0.2285
 3800SOL     OW11991   6.207   2.805   2.838 -0.3233  0.1927 -0.1092
 3800SOL    HW111992   6.296   2.799   2.873 -0.2127  0.3492 -0.3626
 3800SOL    HW211993   6.206   2.742   2.765 -0.8432 -0.8609  0.7747
 3801SOL     OW11994   5.623   4.385   2.650  0.6131 -0.3257  0.0187
 3801SOL    HW111995   5.541   4.434   2.657 -0.6137 -2.4294  1.3346
 3801SOL    HW211996   5.683   4.432   2.709 -0.3754 -0.0876  0.8652
 3802SOL     OW11997   4.949   3.624   2.256 -1.0587  0.0843 -0.3402
 3802SOL    HW111998   5.037   3.589   2.239 -0.9866  0.9586 -2.0255
 3802SOL    HW211999   4.899   3.550   2.290  0.1194 -0.6195 -0.0803
 3803SOL     OW12000   6.575   3.247   1.303  0.1726 -0.1257 -0.1455
 3803SOL    HW112001   6.615   3.160   1.300  0.8441  0.1736 -0.0512
 3803SOL    HW212002   6.485   3.231   1.333  0.7294 -0.6528  1.3801
 3804SOL     OW12003   5.739   1.870   2.028  0.0408  0.2337  0.1431
 3804SOL    HW112004   5.786   1.828   2.100  1.1681 -0.2499 -0.8403
 3804SOL    HW212005   5.709   1.953   2.065  0.9290  0.1703  1.0645
 3805SOL     OW12006   6.441   0.261   2.544  0.1462  0.0599  1.1169
 3805SOL    HW112007   6.444   0.354   2.565  1.0776  0.4698 -0.6641
 3805SOL    HW212008   6.485   0.253   2.460  0.3436 -2.0423  1.3477
 3806SOL     OW12009   6.281   4.054   2.184  0.4248  0.0561 -0.1064
 3806SOL    HW112010   6.201   4.100   2.158  0.8924  0.9580  0.0235
 3806SOL    HW212011   6.309   4.007   2.105 -0.1585 -0.1630 -0.1847
 3807SOL     OW12012   6.092   2.240   1.073 -0.1838  0.2494  0.7440
 3807SOL    HW112013   6.124   2.321   1.034  0.0149 -0.4697 -0.6279
 3807SOL    HW212014   6.145   2.229   1.152  0.9665  0.5798  0.0435
 3808SOL     OW12015   0.158   1.807   0.526  0.2797 -0.0420  0.4026
 3808SOL    HW112016   0.127   1.717   0.536 -2.0960  0.7786  1.1821
 3808SOL    HW212017   0.089   1.861   0.564  1.1267  2.2028 -0.9977
 3809SOL     OW12018   5.955   3.760   1.865  0.0051  0.3994 -0.2200
 3809SOL    HW112019   5.883   3.811   1.828 -0.5726 -0.4375 -0.2801
 3809SOL    HW212020   5.986   3.706   1.793 -0.2313 -0.2549  0.1582
 3810SOL     OW12021   6.455   2.854   2.904 -0.6003 -0.0128  0.2107
 3810SOL    HW112022   6.424   2.932   2.858 -0.5990 -0.3095 -0.2986
 3810SOL    HW212023   6.493   2.887   2.986  0.2654  0.6121 -0.4346
 3811SOL     OW12024   6.618   2.060   1.941 -0.2231  0.1424 -0.7383
 3811SOL    HW112025   6.707   2.029   1.960 -0.2003 -0.0006 -1.0655
 3811SOL    HW212026   6.630   2.123   1.870 -0.2798  0.8422 -0.1272
 3812SOL     OW12027   6.928   2.646   0.194  0.1323  0.0460  0.4854
 3812SOL    HW112028   6.898   2.564   0.233 -0.0344  0.2455  0.7763
 3812SOL    HW212029   7.003   2.673   0.248  0.4714 -0.1422  0.1204
 3813SOL     OW12030   1.127   2.997   3.445 -0.0884  0.2004  0.5028
 3813SOL    HW112031   1.064   3.031   3.381 -0.1799  2.9273  1.8829
 3813SOL    HW212032   1.185   3.071   3.462  2.5296 -1.7387  0.5027
 3814SOL     OW12033   6.761   3.457   2.447 -0.3598 -0.3212  0.9253
 3814SOL    HW112034   6.831   3.453   2.511  0.9279 -0.7117 -0.4535
 3814SOL    HW212035   6.681   3.457   2.499  0.6402  0.0654  2.5381
 3815SOL     OW12036   7.172   3.573   1.475 -0.0625 -0.1219  0.3244
 3815SOL    HW112037   7.151   3.655   1.429  0.0123 -0.7691 -0.8945
 3815SOL    HW212038   7.252   3.542   1.432 -0.5658 -1.2719  0.2153
 3816SOL     OW12039   7.413   4.717   2.139 -0.2123  0.1932 -0.1595
 3816SOL    HW112040   7.461   4.638   2.162  0.1730  0.1306 -1.1681
 3816SOL    HW212041   7.330   4.709   2.186  1.1023  0.7828  2.4470
 3817SOL     OW12042   6.029   2.691   1.867  0.2001  0.1262 -0.2094
 3817SOL    HW112043   6.006   2.754   1.935  0.9777  1.6906 -1.3339
 3817SOL    HW212044   6.049   2.745   1.790  0.5304 -1.5179 -1.3276
 3818SOL     OW12045   0.046   0.953   0.332  0.1669 -0.0169 -0.3513
 3818SOL    HW112046   0.112   0.898   0.373 -0.0790  0.0924  0.2059
 3818SOL    HW212047  -0.030   0.896   0.322  0.5500 -0.3335 -1.6072
 3819SOL     OW12048   6.297   2.635   0.702  0.1766 -0.2928 -0.4743
 3819SOL    HW112049   6.307   2.576   0.627 -0.2992  0.1338 -0.8858
 3819SOL    HW212050   6.381   2.680   0.710 -0.2607  0.8254 -1.7712
 3820SOL     OW12051   6.012   1.817   0.471 -0.1587 -0.0377  0.3659
 3820SOL    HW112052   5.956   1.821   0.549  0.4720 -3.3135  1.1094
 3820SOL    HW212053   5.975   1.746   0.419  0.0271  1.4488 -1.9295
 3821SOL     OW12054   6.251   3.956   0.945  0.2518  0.0080 -0.0973
 3821SOL    HW112055   6.291   3.887   0.891  1.1439  0.2712  0.2083
 3821SOL    HW212056   6.287   4.037   0.911 -1.9267  0.4907 -1.4258
 3822SOL     OW12057   4.770   2.474   0.166  0.1409 -0.3350  1.0370
 3822SOL    HW112058   4.781   2.556   0.116  1.7309 -0.9935  0.2430
 3822SOL    HW212059   4.857   2.456   0.201 -0.6146 -0.7396  2.7585
 3823SOL     OW12060   7.417   2.649   1.592 -0.0672  0.5594 -0.0989
 3823SOL    HW112061   7.446   2.662   1.502  1.9927 -0.6138  0.3211
 3823SOL    HW212062   7.429   2.555   1.608 -0.3763  0.7439  1.4062
 3824SOL     OW12063   6.018   2.448   2.037  0.2107 -0.4459  0.3463
 3824SOL    HW112064   5.973   2.529   2.011  1.0304  0.0492  0.4484
 3824SOL    HW212065   5.948   2.382   2.039 -0.3770  0.1408 -0.2440
 3825SOL     OW12066   6.773   1.870   3.003  0.0750  0.3795  0.6305
 3825SOL    HW112067   6.755   1.950   2.954 -1.1739  0.0263  0.4860
 3825SOL    HW212068   6.776   1.802   2.937  0.2868  0.1842  0.8423
 3826SOL     OW12069   4.143   2.978   0.616 -0.5583 -0.6407 -0.6692
 3826SOL    HW112070   4.084   3.016   0.551 -0.1222 -1.3085 -1.4866
 3826SOL    HW212071   4.169   2.894   0.577 -0.7142 -1.3132  0.6173
 3827SOL     OW12072   6.293   3.484   3.225 -0.0459 -0.1281  0.1464
 3827SOL    HW112073   6.307   3.577   3.205  1.3173 -0.4827 -0.6149
 3827SOL    HW212074   6.203   3.481   3.258 -1.1851  1.0609 -2.5254
 3828SOL     OW12075   6.793   3.484   1.031  0.9875 -0.3195 -0.1534
 3828SOL    HW112076   6.765   3.400   0.996  0.1195 -0.1544  0.1158
 3828SOL    HW212077   6.865   3.463   1.090  1.5880 -0.7350 -1.0348
 3829SOL     OW12078   5.513   3.450   1.257  0.2886 -0.2949  0.1587
 3829SOL    HW112079   5.473   3.536   1.271 -1.2087 -1.2597  2.4875
 3829SOL    HW212080   5.534   3.419   1.345 -0.0412 -2.6742 -0.5342
 3830SOL     OW12081   6.266   1.880   2.065  0.0261  0.4286  0.4493
 3830SOL    HW112082   6.287   1.881   1.972 -2.1043 -0.1248 -0.1120
 3830SOL    HW212083   6.350   1.889   2.110  1.1338  0.3319 -1.5171
 3831SOL     OW12084   6.107   1.619   0.282 -0.0841  0.4424  0.0573
 3831SOL    HW112085   6.019   1.616   0.244 -1.2950 -2.2727  2.6046
 3831SOL    HW212086   6.107   1.699   0.335 -0.7883  0.8059 -0.4728
 3832SOL     OW12087   7.155   4.439   1.058 -0.3701  0.5856 -0.3264
 3832SOL    HW112088   7.131   4.356   1.018  0.9798 -0.9279  1.8244
 3832SOL    HW212089   7.072   4.479   1.084 -1.1027  0.4821 -2.3269
 3833SOL     OW12090   6.772   4.646   2.557 -0.1578 -0.4503 -0.5309
 3833SOL    HW112091   6.797   4.730   2.519 -0.1382  0.4408  1.3568
 3833SOL    HW212092   6.849   4.590   2.544  1.1719  0.8699  1.1123
 3834SOL     OW12093   5.944   3.052   0.801 -0.4536  0.8245  0.1464
 3834SOL    HW112094   5.873   3.018   0.747  0.2484  0.6827 -0.7108
 3834SOL    HW212095   5.901   3.109   0.864 -1.4079  0.1427  0.1397
 3835SOL     OW12096   5.978   4.210   0.935 -0.5141  0.4181 -0.1360
 3835SOL    HW112097   6.006   4.241   1.021 -0.9201  0.4804 -0.0246
 3835SOL    HW212098   6.031   4.260   0.873 -1.5942  1.8148  0.0190
 3836SOL     OW12099   6.565   3.194   2.432  0.4584 -0.2964 -0.7118
 3836SOL    HW112100   6.500   3.223   2.497 -0.3969 -0.3753 -1.5190
 3836SOL    HW212101   6.577   3.270   2.374  0.4753 -0.5575 -1.0499
 3837SOL     OW12102   6.301   3.385   0.388  0.3429  0.2254  0.4704
 3837SOL    HW112103   6.287   3.290   0.386  0.0078  0.2766  0.3919
 3837SOL    HW212104   6.214   3.422   0.401 -0.0425  0.6633 -2.6149
 3838SOL     OW12105   6.941   4.557   1.190 -0.4631  0.7902 -0.1903
 3838SOL    HW112106   6.928   4.558   1.285  1.1380  1.1491  0.0563
 3838SOL    HW212107   6.906   4.641   1.160 -1.7099  0.3380 -0.0419
 3839SOL     OW12108   5.296   2.270   0.815  0.4720  0.5062 -0.6661
 3839SOL    HW112109   5.381   2.238   0.846 -0.0936 -0.9150 -0.5137
 3839SOL    HW212110   5.270   2.208   0.747 -0.1048  1.3643 -1.2522
 3840SOL     OW12111   6.266   3.812   0.496 -0.2134  0.2745 -0.5534
 3840SOL    HW112112   6.215   3.733   0.476  2.9123 -2.0955  0.0394
 3840SOL    HW212113   6.318   3.828   0.416  0.2972  0.7884 -0.1313
 3841SOL     OW12114   7.318   4.403   1.273 -0.3504 -0.5780  0.0811
 3841SOL    HW112115   7.285   4.435   1.189  0.3683 -1.0409 -0.3908
 3841SOL    HW212116   7.240   4.371   1.318 -1.2920  2.6548  1.0067
 3842SOL     OW12117   5.073   4.820   0.779 -1.0238  0.0290  0.0297
 3842SOL    HW112118   5.051   4.803   0.871 -2.4331 -0.0940 -0.3098
 3842SOL    HW212119   5.100   4.912   0.779  3.5101 -1.0457  1.3065
 3843SOL     OW12120   6.367   3.688   1.357 -0.7647 -0.1888  0.2517
 3843SOL    HW112121   6.276   3.661   1.351 -0.8215 -0.8570  2.7447
 3843SOL    HW212122   6.397   3.650   1.440  1.8474 -0.1808 -0.6085
 3844SOL     OW12123   6.639   0.488   1.726  0.8138 -0.8401 -0.8770
 3844SOL    HW112124   6.647   0.481   1.631  1.2943  0.8942 -1.0022
 3844SOL    HW212125   6.729   0.482   1.759  0.7720 -0.2573 -0.6420
 3845SOL     OW12126   6.952   2.693   3.472  0.3824 -0.5400  0.2297
 3845SOL    HW112127   7.001   2.768   3.440 -1.1781  0.4549  0.0646
 3845SOL    HW212128   6.974   2.687   3.565  0.0519  0.5146  0.3866
 3846SOL     OW12129   6.962   2.555   1.223 -0.1912  0.2382 -0.0873
 3846SOL    HW112130   6.995   2.477   1.267  0.0540  0.1604 -0.4022
 3846SOL    HW212131   6.945   2.527   1.133  0.2549  0.6358 -0.3012
 3847SOL     OW12132   6.351   2.289   1.623  0.6171  0.0739 -0.3549
 3847SOL    HW112133   6.298   2.338   1.685 -0.2629  0.4716 -1.4003
 3847SOL    HW212134   6.381   2.354   1.560  2.6051 -0.0875  0.3573
 3848SOL     OW12135   0.013   3.340   0.958  0.2079  0.0071  0.6320
 3848SOL    HW112136  -0.068   3.332   1.009 -0.4706  0.0851 -0.4183
 3848SOL    HW212137   0.013   3.264   0.900  0.9947 -0.0961  0.7507
 3849SOL     OW12138   6.431   4.314   1.134 -0.0933  0.1646  0.3942
 3849SOL    HW112139   6.491   4.310   1.209  0.0653  0.0562  0.2623
 3849SOL    HW212140   6.489   4.318   1.058 -0.2153  2.0219  0.3351
 3850SOL     OW12141   4.529   3.702   3.302  0.3357  0.2002 -0.0323
 3850SOL    HW112142   4.504   3.768   3.367 -0.0841  0.7958 -0.7731
 3850SOL    HW212143   4.550   3.753   3.224  2.7022 -0.3517  0.1622
 3851SOL     OW12144   7.237   3.232   2.379 -0.0365  0.6573  0.4609
 3851SOL    HW112145   7.299   3.160   2.368  0.8952  1.5890 -0.6491
 3851SOL    HW212146   7.163   3.209   2.323 -0.5026 -0.2373  1.4266
 3852SOL     OW12147   6.751   2.901   0.196 -0.4716  0.2154  0.0242
 3852SOL    HW112148   6.787   2.813   0.203 -0.9576 -0.0470 -0.6382
 3852SOL    HW212149   6.754   2.936   0.285  2.7915  0.7593 -0.1777
 3853SOL     OW12150   6.115   2.445   0.160  0.4960  0.2680  0.2295
 3853SOL    HW112151   6.075   2.440   0.073  1.2214  0.8841 -0.1496
 3853SOL    HW212152   6.171   2.367   0.165  1.4905  0.9149 -0.4039
 3854SOL     OW12153   0.106   4.352   2.720 -0.4376 -0.3724 -0.2660
 3854SOL    HW112154   0.014   4.355   2.747 -0.8971  0.4073 -1.8224
 3854SOL    HW212155   0.114   4.268   2.675 -0.9035  0.3702 -1.7865
 3855SOL     OW12156   6.569   3.035   2.209  0.1359  0.1012  0.4534
 3855SOL    HW112157   6.659   3.028   2.177  0.6558  2.1643  1.3025
 3855SOL    HW212158   6.575   3.092   2.286 -1.5992 -1.5672  1.9514
 3856SOL     OW12159   6.158   0.795   0.468 -0.8547  0.2363  0.0578
 3856SOL    HW112160   6.187   0.776   0.557 -2.2100  0.0089  0.4865
 3856SOL    HW212161   6.231   0.769   0.412  0.2042  0.8414  1.1237
 3857SOL     OW12162   0.047   3.785   0.723  0.3703  0.0469  0.2215
 3857SOL    HW112163   0.070   3.692   0.732  0.3923  0.1300  1.1439
 3857SOL    HW212164   0.020   3.811   0.811  0.4933  0.9518 -0.0024
 3858SOL     OW12165   6.488   4.550   0.696  0.1900  0.2212 -0.3809
 3858SOL    HW112166   6.507   4.615   0.764  0.8320  0.4525 -0.7678
 3858SOL    HW212167   6.471   4.603   0.618  0.1207 -0.0566 -0.5540
 3859SOL     OW12168   7.325   2.142   0.360 -0.3067 -0.1659 -0.4905
 3859SOL    HW112169   7.386   2.165   0.430 -0.3632  0.0037 -0.4968
 3859SOL    HW212170   7.345   2.205   0.290  1.3036 -1.7174 -1.5207
 3860SOL     OW12171   5.750   2.934   0.623  0.3571  0.0464 -0.4210
 3860SOL    HW112172   5.668   2.911   0.579  0.6089 -0.5680 -0.5809
 3860SOL    HW212173   5.804   2.972   0.554  1.0523 -1.6477 -0.8657
 3861SOL     OW12174   7.292   1.793   1.191 -0.4175  0.1904 -0.5235
 3861SOL    HW112175   7.327   1.882   1.205  1.0790 -0.7422  2.4020
 3861SOL    HW212176   7.198   1.801   1.207 -0.1484  1.0746  0.7418
 3862SOL     OW12177   5.727   2.953   0.272 -0.1357 -0.1951  0.0525
 3862SOL    HW112178   5.790   2.882   0.263 -0.7547 -0.6011 -1.3908
 3862SOL    HW212179   5.662   2.919   0.333 -1.1866 -1.5047 -1.6837
 3863SOL     OW12180   7.006   1.508   2.156 -0.4108 -0.0551  0.2837
 3863SOL    HW112181   6.986   1.589   2.204 -1.9360 -0.3480  0.2098
 3863SOL    HW212182   7.044   1.450   2.222  0.3747  0.5856  0.4132
 3864SOL     OW12183   5.338   3.534   0.994  0.3290  0.5338 -0.0955
 3864SOL    HW112184   5.275   3.589   0.946 -0.4924 -1.1380 -1.0069
 3864SOL    HW212185   5.349   3.578   1.078 -1.1868  1.4839 -0.3602
 3865SOL     OW12186   5.645   3.177   1.820 -0.9760 -0.1554 -0.2805
 3865SOL    HW112187   5.629   3.089   1.853  0.3766 -0.8521 -1.3817
 3865SOL    HW212188   5.671   3.164   1.729  0.2794  1.2860 -0.1655
 3866SOL     OW12189   3.935   3.448   1.576 -0.3470 -0.5685 -0.1821
 3866SOL    HW112190   4.027   3.468   1.558  0.2876 -1.5748  1.6305
 3866SOL    HW212191   3.899   3.420   1.492  1.2815 -1.1651 -0.7218
 3867SOL     OW12192   5.744   3.174   1.569 -0.6203  0.0332 -0.3967
 3867SOL    HW112193   5.820   3.195   1.624 -2.3632  2.9701  1.1624
 3867SOL    HW212194   5.777   3.181   1.479  1.1740  0.1916  0.2404
 3868SOL     OW12195   5.861   2.958   1.123 -0.1901  0.4347  0.4023
 3868SOL    HW112196   5.861   2.865   1.144 -0.6467  0.4948  0.6862
 3868SOL    HW212197   5.954   2.982   1.119 -0.0740  0.0010  0.4671
 3869SOL     OW12198   6.234   2.082   3.371  0.3089 -0.3046 -0.1893
 3869SOL    HW112199   6.217   2.050   3.460 -0.9683 -1.9830 -0.9933
 3869SOL    HW212200   6.307   2.029   3.340  0.2301 -0.2720 -0.4325
 3870SOL     OW12201   5.468   2.699   0.080  0.2887  0.2980 -0.0183
 3870SOL    HW112202   5.468   2.793   0.098 -2.2606  0.1861  1.0974
 3870SOL    HW212203   5.419   2.691  -0.002 -1.2902 -0.1042  0.9099
 3871SOL     OW12204   6.333   3.971   1.381 -0.5811  0.2589  0.0820
 3871SOL    HW112205   6.374   4.011   1.305 -0.6364  0.4816  0.1692
 3871SOL    HW212206   6.333   3.877   1.361 -1.5990  0.4098 -0.6756
 3872SOL     OW12207   5.527   4.945   1.100 -0.7884 -0.5430  0.5217
 3872SOL    HW112208   5.597   4.887   1.067 -0.7463  0.1201 -0.6085
 3872SOL    HW212209   5.490   4.897   1.174  0.7029 -1.0247  0.9990
 3873SOL     OW12210   7.108   2.909   2.403 -0.0641  0.1951  0.0517
 3873SOL    HW112211   7.162   2.867   2.470  1.5266  3.1232  0.7573
 3873SOL    HW212212   7.064   2.980   2.449 -1.5075  0.2697 -1.3649
 3874SOL     OW12213   7.093   3.281   1.882 -0.0589  0.1889  0.0683
 3874SOL    HW112214   7.106   3.208   1.821  0.0485 -0.7220  1.1331
 3874SOL    HW212215   7.040   3.344   1.834  0.0182 -0.5016 -0.9590
 3875SOL     OW12216   5.438   3.756   1.304  0.8775 -0.1882  0.3215
 3875SOL    HW112217   5.345   3.733   1.306  1.3497 -2.4949 -0.8801
 3875SOL    HW212218   5.463   3.763   1.395 -1.0089  3.2069  0.7467
 3876SOL     OW12219   0.089   2.079   0.932  0.0313 -0.1648 -0.1070
 3876SOL    HW112220   0.150   2.062   1.004  0.9500  0.3337 -0.7499
 3876SOL    HW212221   0.123   2.157   0.889 -0.1918 -0.7354 -1.3936
 3877SOL     OW12222   0.140   2.824   0.909 -0.2721  0.4027 -0.2541
 3877SOL    HW112223   0.060   2.821   0.960 -0.0288 -3.3641  0.1799
 3877SOL    HW212224   0.207   2.853   0.971 -1.1376  3.5590 -0.6209
 3878SOL     OW12225   5.646   1.807   0.120 -1.1960  0.3676 -0.2905
 3878SOL    HW112226   5.612   1.843   0.202  1.8232 -0.1943  1.3238
 3878SOL    HW212227   5.597   1.725   0.109 -1.9337  0.6459  0.7067
 3879SOL     OW12228   0.064   1.276   1.254  0.0932 -0.0546 -0.7999
 3879SOL    HW112229   0.012   1.265   1.334  1.0426 -1.0257 -0.2774
 3879SOL    HW212230   0.059   1.369   1.234 -1.9495 -0.1353 -0.8664
 3880SOL     OW12231   7.037   2.849   2.139  0.0077  0.2686  0.3146
 3880SOL    HW112232   7.110   2.817   2.087 -0.1468  0.4735 -0.0305
 3880SOL    HW212233   7.076   2.873   2.223  0.5185  1.2943 -0.1939
 3881SOL     OW12234   6.601   2.738   0.898  0.2531  0.2074 -0.2564
 3881SOL    HW112235   6.590   2.828   0.929  0.3936 -0.1840  0.9816
 3881SOL    HW212236   6.690   2.715   0.923  0.3025 -0.2025 -0.7950
 3882SOL     OW12237   5.449   3.342   0.150 -0.2310 -0.5082  0.1259
 3882SOL    HW112238   5.447   3.264   0.205  0.8061 -2.0300 -1.8272
 3882SOL    HW212239   5.377   3.396   0.182 -1.1082 -2.3468  1.4594
 3883SOL     OW12240   6.814   3.813   1.586  0.4099  0.3293 -0.2513
 3883SOL    HW112241   6.895   3.780   1.548 -0.1911  0.4290 -1.6811
 3883SOL    HW212242   6.745   3.772   1.535 -0.3926  1.9977 -0.5784
 3884SOL     OW12243   6.798   3.971   0.091 -0.7190 -0.3228  0.4921
 3884SOL    HW112244   6.757   4.048   0.051 -0.2827  0.3521  1.3060
 3884SOL    HW212245   6.891   3.994   0.095 -0.9841  0.6500  3.9615
 3885SOL     OW12246   0.009   3.117   1.277 -0.3857 -0.5224 -0.6137
 3885SOL    HW112247   0.096   3.137   1.243 -0.5900  0.7703 -0.4271
 3885SOL    HW212248  -0.050   3.134   1.204 -0.4435 -2.0667 -0.9557
 3886SOL     OW12249   6.263   3.338   2.309 -0.3480  0.3840 -0.9101
 3886SOL    HW112250   6.205   3.274   2.267  2.0287 -3.1151  0.7178
 3886SOL    HW212251   6.234   3.339   2.401 -0.2434  1.6047 -0.8769
 3887SOL     OW12252   5.458   3.828   1.556 -0.0581  0.2772 -0.0286
 3887SOL    HW112253   5.457   3.914   1.513 -0.8028  0.0662 -0.4617
 3887SOL    HW212254   5.374   3.823   1.602 -1.5452 -1.4716 -2.6441
 3888SOL     OW12255   6.579   3.620   0.740 -0.0680 -0.4039 -0.2977
 3888SOL    HW112256   6.505   3.635   0.681 -0.5994 -0.8368  0.2555
 3888SOL    HW212257   6.564   3.532   0.775  1.1449 -0.8328 -0.8096
 3889SOL     OW12258   7.065   2.770   1.560 -0.1556 -0.0385 -0.0190
 3889SOL    HW112259   6.987   2.729   1.524 -0.5767  0.0977  0.7280
 3889SOL    HW212260   7.103   2.703   1.618 -1.1523  0.7767  1.6485
 3890SOL     OW12261   7.495   1.386   0.866  0.2280  0.0381  0.4629
 3890SOL    HW112262   7.462   1.408   0.779  0.3092 -0.8056  0.2159
 3890SOL    HW212263   7.448   1.445   0.925 -0.3040  0.1689 -0.0828
 3891SOL     OW12264   0.311   2.431   1.474  0.4645 -0.1716  0.5027
 3891SOL    HW112265   0.227   2.432   1.428  2.1666 -0.2233 -2.8664
 3891SOL    HW212266   0.349   2.345   1.455  3.5093  1.6411 -2.7715
 3892SOL     OW12267   5.615   3.569   0.753  0.0648 -0.1755  0.5273
 3892SOL    HW112268   5.585   3.519   0.828 -2.1577  0.5578  0.1952
 3892SOL    HW212269   5.535   3.607   0.715  1.4063  1.7829 -0.5325
 3893SOL     OW12270   6.020   2.564   0.724  0.0026  0.1246  0.1246
 3893SOL    HW112271   6.059   2.638   0.770 -0.3063 -0.2696  1.0612
 3893SOL    HW212272   6.093   2.505   0.706  0.2243  0.5750 -0.4821
 3894SOL     OW12273   6.980   2.431   0.965 -0.3655  0.1743 -0.3386
 3894SOL    HW112274   7.063   2.400   0.928 -0.2651 -0.2330  0.2108
 3894SOL    HW212275   6.922   2.355   0.961 -0.1999 -0.0289  0.7766
 3895SOL     OW12276   5.300   4.106   2.947  0.1745  0.2278 -0.1105
 3895SOL    HW112277   5.298   4.015   2.917  0.9412  0.4531 -0.8865
 3895SOL    HW212278   5.231   4.111   3.013  0.4103 -1.0168  0.2500
 3896SOL     OW12279   6.167   2.886   0.424 -0.1870  0.2398  0.3300
 3896SOL    HW112280   6.196   2.863   0.512 -3.7564 -1.1167  1.3073
 3896SOL    HW212281   6.156   2.801   0.380  0.9820  0.8746 -1.3011
 3897SOL     OW12282   0.838   2.839   3.269  0.0913 -0.3454 -0.0292
 3897SOL    HW112283   0.777   2.801   3.205  0.9835 -0.4972 -0.8123
 3897SOL    HW212284   0.893   2.897   3.217  1.5810 -1.3399  0.3692
 3898SOL     OW12285   0.044   2.361   1.649  0.4045 -0.2938 -0.1167
 3898SOL    HW112286   0.100   2.290   1.617 -0.0891 -0.9148  0.3726
 3898SOL    HW212287   0.103   2.417   1.699  0.7277 -0.5881 -0.1651
 3899SOL     OW12288   0.022   2.260   0.528  0.9846 -0.1229 -0.0773
 3899SOL    HW112289   0.079   2.234   0.601 -0.5624 -0.4338  1.0601
 3899SOL    HW212290   0.006   2.353   0.542  1.1217 -0.0600 -0.3355
 3900SOL     OW12291   6.284   2.499   2.899 -0.3151 -0.3752 -0.4784
 3900SOL    HW112292   6.199   2.506   2.942 -0.4866  1.3024 -1.0250
 3900SOL    HW212293   6.342   2.555   2.950 -0.3334  1.0274 -1.9301
 3901SOL     OW12294   6.123   3.266   0.641  0.1733  0.0531  0.1466
 3901SOL    HW112295   6.067   3.264   0.718 -1.3888  0.5146 -0.9449
 3901SOL    HW212296   6.083   3.205   0.579  1.0417  0.1575 -0.5522
 3902SOL     OW12297   6.287   3.756   0.766  0.5747 -0.2680 -0.1272
 3902SOL    HW112298   6.293   3.763   0.671  1.1859 -0.3369 -0.0996
 3902SOL    HW212299   6.288   3.662   0.783 -2.2900 -0.4055 -0.1926
 3903SOL     OW12300   6.304   3.608   1.780  0.3724  0.4836 -0.7250
 3903SOL    HW112301   6.222   3.612   1.731 -0.7799  1.0685  1.1230
 3903SOL    HW212302   6.278   3.624   1.871  2.4544 -0.0580  0.0264
 3904SOL     OW12303   6.840   1.658   2.852  0.0497 -0.0672 -0.4075
 3904SOL    HW112304   6.927   1.641   2.815 -0.6981  0.0341 -2.2844
 3904SOL    HW212305   6.804   1.571   2.870  0.8031 -0.0975  1.0989
 3905SOL     OW12306   7.031   3.992   1.979 -0.0732  0.6786 -0.7078
 3905SOL    HW112307   7.001   3.922   1.920 -0.8706  0.7647 -0.4142
 3905SOL    HW212308   7.061   3.946   2.057 -0.2499  0.6367 -0.6629
 3906SOL     OW12309   6.082   4.016   2.979 -0.1798 -0.4274  0.0526
 3906SOL    HW112310   6.172   4.046   2.989  0.3037 -1.4851 -0.9520
 3906SOL    HW212311   6.084   3.956   2.904 -1.9277  0.3686 -0.7022
 3907SOL     OW12312   6.310   3.753   2.407 -0.0584  0.1035  0.3894
 3907SOL    HW112313   6.299   3.685   2.473 -0.2718  1.6871  2.0993
 3907SOL    HW212314   6.221   3.773   2.378 -0.1375  0.6273  0.9695
 3908SOL     OW12315   6.222   3.253   2.901  0.7050  0.2045 -0.0497
 3908SOL    HW112316   6.174   3.216   2.827  0.3766  0.6082 -0.0382
 3908SOL    HW212317   6.189   3.205   2.977  2.4607 -1.6323 -0.3567
 3909SOL     OW12318   6.391   2.038   1.074 -0.2924  0.0316  0.1883
 3909SOL    HW112319   6.405   1.945   1.054 -0.6034 -0.0676  0.4322
 3909SOL    HW212320   6.302   2.056   1.045  0.2365  0.6103 -1.1470
 3910SOL     OW12321   5.688   3.058   3.441  0.1984 -0.3626 -0.0929
 3910SOL    HW112322   5.672   3.049   3.347 -0.4503  3.6540 -0.5482
 3910SOL    HW212323   5.719   2.972   3.469 -0.5358 -1.9861 -3.7531
 3911SOL     OW12324   6.827   2.337   3.063 -0.0034  0.2544 -0.5129
 3911SOL    HW112325   6.857   2.393   3.135 -1.1997  1.3386 -0.8266
 3911SOL    HW212326   6.779   2.396   3.005  1.5014 -0.4387 -2.5909
 3912SOL     OW12327   7.108   3.350   0.196 -0.3230  0.4608 -0.6909
 3912SOL    HW112328   7.082   3.310   0.279  0.2282 -0.8259 -1.1018
 3912SOL    HW212329   7.026   3.384   0.160 -0.5363  1.2022  0.4506
 3913SOL     OW12330   5.506   2.991   0.107 -0.6055  0.6514 -0.0904
 3913SOL    HW112331   5.581   2.985   0.166 -0.3987  0.0071 -0.4120
 3913SOL    HW212332   5.544   3.019   0.023 -0.7377  0.3942 -0.2360
 3914SOL     OW12333   7.330   2.109   2.613  0.2914 -0.0514  0.2512
 3914SOL    HW112334   7.300   2.061   2.690  0.3615  1.7954  1.4638
 3914SOL    HW212335   7.305   2.052   2.539 -0.1173 -1.6773  1.5794
 3915SOL     OW12336   6.057   3.799   2.249  0.2006 -0.4681  0.4220
 3915SOL    HW112337   6.020   3.881   2.281  0.4184 -0.2067  0.0068
 3915SOL    HW212338   5.982   3.741   2.238 -0.0381 -0.0761 -0.0240
 3916SOL     OW12339   5.613   3.587   2.085 -0.8449 -0.0549 -0.2190
 3916SOL    HW112340   5.558   3.636   2.024  1.5438 -0.8624 -3.2121
 3916SOL    HW212341   5.576   3.499   2.084 -1.7217  0.2739  0.7839
 3917SOL     OW12342   7.122   3.916   2.973  0.3458  0.0602 -0.3163
 3917SOL    HW112343   7.085   4.001   2.998  0.0624  1.2227 -3.9938
 3917SOL    HW212344   7.046   3.862   2.952  0.5680 -0.5721  0.4694
 3918SOL     OW12345   5.655   4.488   2.944  0.1240 -0.2046 -0.0736
 3918SOL    HW112346   5.652   4.394   2.964 -2.5258  0.2449  2.1503
 3918SOL    HW212347   5.726   4.522   2.999  0.4067 -0.7118 -0.1144
 3919SOL     OW12348   6.004   3.117   1.719 -0.1703 -0.3806  0.5203
 3919SOL    HW112349   6.076   3.165   1.677 -1.0718  0.4258 -0.1214
 3919SOL    HW212350   5.995   3.160   1.805  0.0660 -0.4412  0.5774
 3920SOL     OW12351   7.486   2.012   2.340  0.0467  0.2714  0.5848
 3920SOL    HW112352   7.395   1.988   2.356  0.2743  0.0417  1.5784
 3920SOL    HW212353   7.537   1.952   2.394  0.9467 -1.3086 -1.8037
 3921SOL     OW12354   5.326   2.733   2.792 -0.1697 -0.7208  0.2608
 3921SOL    HW112355   5.237   2.731   2.828 -0.2482  2.1878  0.4741
 3921SOL    HW212356   5.355   2.641   2.793 -3.0658 -1.7162  0.3442
 3922SOL     OW12357   0.175   4.174   2.219 -0.0150  0.4591  0.6942
 3922SOL    HW112358   0.097   4.162   2.164  1.1574  1.5218 -1.3263
 3922SOL    HW212359   0.213   4.256   2.188  1.0536  0.7979  2.7578
 3923SOL     OW12360   4.978   4.362   1.742  0.3564  0.0428  0.0509
 3923SOL    HW112361   4.887   4.371   1.772  0.6188  0.8822  0.6128
 3923SOL    HW212362   4.970   4.329   1.652 -0.4599 -1.6679  0.6896
 3924SOL     OW12363   0.611   4.331   2.138  0.5838  0.2887  0.3128
 3924SOL    HW112364   0.630   4.402   2.200 -0.3119  1.7620 -1.0163
 3924SOL    HW212365   0.633   4.367   2.052  0.2390 -1.1126 -0.3940
 3925SOL     OW12366   6.602   2.273   1.766 -0.4834 -0.1176 -0.0084
 3925SOL    HW112367   6.611   2.349   1.824  0.0257  0.1121 -0.3813
 3925SOL    HW212368   6.515   2.284   1.726  0.8811  2.1553 -2.6657
 3926SOL     OW12369   5.296   3.302   0.595 -0.0661 -0.1209  0.3543
 3926SOL    HW112370   5.388   3.285   0.575  0.1567  0.8265  0.4915
 3926SOL    HW212371   5.290   3.291   0.690  0.7033  2.9646  0.8831
 3927SOL     OW12372   6.088   1.642   1.955  0.3083  0.8082 -0.2830
 3927SOL    HW112373   6.049   1.678   1.875 -1.0584 -0.3262 -0.1657
 3927SOL    HW212374   6.033   1.675   2.026 -1.0767 -1.4930 -0.1806
 3928SOL     OW12375   7.319   3.333   0.036  0.0782 -0.0592  1.0022
 3928SOL    HW112376   7.350   3.423   0.035  1.0154 -0.3815  0.5133
 3928SOL    HW212377   7.242   3.336   0.093 -0.8770  1.3468 -0.2886
 3929SOL     OW12378   0.023   1.924   1.472  1.0764 -0.2597  0.0044
 3929SOL    HW112379   0.040   1.834   1.499  0.3651 -0.0169  1.3237
 3929SOL    HW212380  -0.071   1.935   1.481  1.2029  0.7358  0.2781
 3930SOL     OW12381   6.382   3.235   1.965 -0.4973  0.4155  0.4406
 3930SOL    HW112382   6.435   3.280   2.030 -1.7522  2.2795  0.2419
 3930SOL    HW212383   6.318   3.186   2.015  2.2975 -3.3178  0.7750
 3931SOL     OW12384   0.566   2.670   3.379  0.2213  0.4987  0.4014
 3931SOL    HW112385   0.598   2.720   3.304 -0.8709  1.1257  0.3287
 3931SOL    HW212386   0.603   2.714   3.455  1.8757 -0.5369  0.2340
 3932SOL     OW12387   6.093   2.501   3.439 -0.4944  0.4853 -0.1159
 3932SOL    HW112388   6.094   2.571   3.374  1.6300  0.6718  0.0246
 3932SOL    HW212389   6.111   2.421   3.389 -1.1312  0.2909 -0.0418
 3933SOL     OW12390   0.478   4.974   2.046 -0.7941  0.6923  0.4016
 3933SOL    HW112391   0.450   5.043   2.107 -2.8181  0.3036 -0.0434
 3933SOL    HW212392   0.495   4.898   2.102  2.3885  1.6747  1.0254
 3934SOL     OW12393   0.431   2.856   2.664 -0.3335  0.1377  0.0991
 3934SOL    HW112394   0.365   2.920   2.690 -0.0905 -0.2342  1.7240
 3934SOL    HW212395   0.434   2.863   2.569 -1.0888  1.7613  0.1540
 3935SOL     OW12396   5.765   2.713   1.773  0.5836 -0.0926  0.3023
 3935SOL    HW112397   5.861   2.712   1.763  0.6317 -1.8932  0.5450
 3935SOL    HW212398   5.735   2.636   1.724 -0.5474 -0.5770  1.6725
 3936SOL     OW12399   7.323   2.995   1.818 -0.3123 -0.1688  0.3222
 3936SOL    HW112400   7.239   3.037   1.796 -0.1782  0.6051  1.2579
 3936SOL    HW212401   7.386   3.036   1.759 -0.4984 -0.3996 -0.0433
 3937SOL     OW12402   6.501   1.410   3.064 -0.3643  0.0764  0.4022
 3937SOL    HW112403   6.515   1.375   3.152 -0.0130  2.6339  1.4510
 3937SOL    HW212404   6.580   1.386   3.016 -0.1925 -0.6268  1.0183
 3938SOL     OW12405   6.905   2.683   0.922  0.5654 -0.2927 -0.1841
 3938SOL    HW112406   6.942   2.597   0.943 -1.0146 -0.9873 -0.0101
 3938SOL    HW212407   6.975   2.745   0.938  1.3278 -1.4280  1.0828
 3939SOL     OW12408   6.471   0.427   2.895  0.2096  0.6201 -0.3143
 3939SOL    HW112409   6.565   0.436   2.876 -0.1075  1.2209 -1.7677
 3939SOL    HW212410   6.428   0.450   2.812 -1.2253  0.4202  0.3503
 3940SOL     OW12411   6.094   2.477   2.518 -0.2175 -0.4306 -0.2532
 3940SOL    HW112412   6.124   2.483   2.427  0.8320 -1.7871 -0.0450
 3940SOL    HW212413   6.169   2.439   2.564 -1.5736 -2.0648  0.7010
 3941SOL     OW12414   4.922   2.567   2.606  0.4840  0.4633 -0.1798
 3941SOL    HW112415   4.857   2.636   2.619  0.5764  0.5845 -0.3504
 3941SOL    HW212416   4.876   2.499   2.559 -0.4261 -0.8505  2.4054
 3942SOL     OW12417   5.703   4.137   2.629 -0.6376 -0.1540  0.5306
 3942SOL    HW112418   5.695   4.118   2.722  1.2592  2.3856  1.3316
 3942SOL    HW212419   5.662   4.223   2.619  3.2080  1.8214  0.0814
 3943SOL     OW12420   6.644   0.941   1.495 -0.3686 -0.2043 -0.2039
 3943SOL    HW112421   6.715   0.960   1.434  0.0812  0.1339  0.4212
 3943SOL    HW212422   6.564   0.962   1.445 -0.0409 -0.5536 -0.8901
 3944SOL     OW12423   5.131   4.917   1.652 -0.1528 -0.2184 -0.1218
 3944SOL    HW112424   5.051   4.930   1.602  0.0232 -0.8468 -0.5893
 3944SOL    HW212425   5.120   4.831   1.693  1.2796 -1.5095 -2.2186
 3945SOL     OW12426   5.487   3.226   2.155  0.1052 -0.4086  0.1645
 3945SOL    HW112427   5.509   3.208   2.246  0.7575  0.3456  0.1738
 3945SOL    HW212428   5.555   3.182   2.104 -0.5180 -1.2139  0.0131
 3946SOL     OW12429   5.368   4.368   3.093  0.6829  0.4596 -0.5664
 3946SOL    HW112430   5.392   4.276   3.083 -1.7534 -0.6193  2.1310
 3946SOL    HW212431   5.360   4.401   3.003  3.1265 -1.4446 -1.6044
 3947SOL     OW12432   4.715   5.222   3.104 -0.1524 -0.4328 -0.4604
 3947SOL    HW112433   4.796   5.195   3.060  0.1836 -1.5693  0.7696
 3947SOL    HW212434   4.720   5.180   3.190 -0.9191  1.4770  0.5571
 3948SOL     OW12435   0.183   2.845   2.419  0.0016  0.5384  0.1512
 3948SOL    HW112436   0.122   2.785   2.376 -2.2931  1.8526  1.3672
 3948SOL    HW212437   0.183   2.819   2.511  1.7313  0.2436  0.0955
 3949SOL     OW12438   7.114   4.419   3.208 -0.2234  0.6929  0.3235
 3949SOL    HW112439   7.205   4.424   3.236  0.6270 -0.9982 -1.8774
 3949SOL    HW212440   7.097   4.503   3.165  0.9651  0.3014 -0.9808
 3950SOL     OW12441   5.187   2.037   2.378 -0.1101  0.0741 -0.1459
 3950SOL    HW112442   5.219   1.947   2.375  1.4103  0.5673  0.3164
 3950SOL    HW212443   5.242   2.085   2.317 -0.5249  0.8051  0.0299
 3951SOL     OW12444   5.617   2.551   0.870  0.3033  0.2157 -0.7711
 3951SOL    HW112445   5.622   2.645   0.883 -2.1570  0.2889  0.1552
 3951SOL    HW212446   5.528   2.528   0.895  1.1407 -2.5228  0.0583
 3952SOL     OW12447   6.758   3.856   1.852 -0.2448  0.1160 -0.1011
 3952SOL    HW112448   6.741   3.839   1.759  1.2263  0.3235 -0.4468
 3952SOL    HW212449   6.742   3.949   1.863 -1.6241 -0.1353  0.1648
 3953SOL     OW12450   6.027   2.807   2.109 -0.7130 -0.0715 -0.2950
 3953SOL    HW112451   6.080   2.776   2.183  1.6106  2.3828 -0.7919
 3953SOL    HW212452   5.952   2.849   2.150  0.8576  1.8310  0.8156
 3954SOL     OW12453   1.134   2.641   1.848 -0.3689 -0.1407 -0.0915
 3954SOL    HW112454   1.208   2.668   1.901  0.1059 -1.7401  0.0847
 3954SOL    HW212455   1.172   2.618   1.763 -0.7995 -0.0151 -0.3242
 3955SOL     OW12456   4.978   3.900   2.360 -0.5385 -0.9093 -0.1877
 3955SOL    HW112457   4.972   3.805   2.348 -0.6541 -1.3890  2.8269
 3955SOL    HW212458   4.889   3.926   2.387 -0.0413 -0.3196  0.9501
 3956SOL     OW12459   7.143   2.576   2.610  0.1315 -0.5951 -0.8082
 3956SOL    HW112460   7.184   2.494   2.638  1.3761  0.3045  0.0733
 3956SOL    HW212461   7.051   2.566   2.635 -0.4781 -2.9118 -3.3982
 3957SOL     OW12462   7.131   3.337   2.611  0.0794  0.3068 -0.0060
 3957SOL    HW112463   7.092   3.422   2.593  0.6352  0.5708  0.0154
 3957SOL    HW212464   7.155   3.303   2.524  0.1187  0.3001  0.0075
 3958SOL     OW12465   6.155   3.557   0.131 -0.3007  0.2467 -0.6183
 3958SOL    HW112466   6.097   3.613   0.079 -1.9739 -0.1672  0.7342
 3958SOL    HW212467   6.113   3.552   0.216  2.2561  0.7288  0.7625
 3959SOL     OW12468   0.002   3.368   2.500  0.3096  0.1309 -0.0035
 3959SOL    HW112469   0.044   3.282   2.503  0.6318  0.3106  0.9568
 3959SOL    HW212470  -0.092   3.349   2.509  0.3895 -0.1172  0.3375
 3960SOL     OW12471   6.541   2.116   2.687 -0.1079  0.3382 -0.4180
 3960SOL    HW112472   6.571   2.081   2.603  0.9718  0.5950 -0.1490
 3960SOL    HW212473   6.617   2.109   2.744 -0.6365  0.8000  0.3556
 3961SOL     OW12474   6.491   4.195   2.293  0.3030 -0.1344 -0.0227
 3961SOL    HW112475   6.430   4.137   2.247  1.9572 -0.9375 -1.3014
 3961SOL    HW212476   6.496   4.274   2.238 -0.6516  0.5644  0.8425
 3962SOL     OW12477   7.153   3.631   3.126  0.8156  0.3412  0.2945
 3962SOL    HW112478   7.160   3.727   3.130  0.8838  0.4876 -1.9479
 3962SOL    HW212479   7.243   3.600   3.137  0.7208  0.4860  1.5803
 3963SOL     OW12480   7.242   3.476   2.870  0.0085  0.0008  0.4448
 3963SOL    HW112481   7.267   3.507   2.783  0.8101  0.2406  0.7529
 3963SOL    HW212482   7.159   3.520   2.888 -0.5487 -0.6302 -0.5005
 3964SOL     OW12483   7.251   3.187   2.777  0.3121 -0.1306 -0.0440
 3964SOL    HW112484   7.201   3.242   2.716  1.0848  1.5216  0.7406
 3964SOL    HW212485   7.262   3.242   2.855 -1.2437 -2.4236  1.9249
 3965SOL     OW12486   6.949   1.382   2.612  0.0918 -0.2253  0.4638
 3965SOL    HW112487   6.958   1.472   2.644  0.0660  0.2991 -0.9242
 3965SOL    HW212488   7.010   1.331   2.665 -0.9512  0.3131  2.2941
 3966SOL     OW12489   7.280   4.440   2.519  0.1004 -0.3256  0.0018
 3966SOL    HW112490   7.373   4.430   2.499  0.6255  0.6739  1.6994
 3966SOL    HW212491   7.258   4.360   2.567  0.4544 -0.0008  0.7334
 3967SOL     OW12492   6.403   2.684   1.802 -0.4834  0.1791  0.4611
 3967SOL    HW112493   6.439   2.619   1.862 -0.4324  1.6311  2.0458
 3967SOL    HW212494   6.389   2.762   1.855 -0.7589  1.4243 -1.3451
 3968SOL     OW12495   6.307   0.529   1.945 -0.1118 -0.0212 -0.3533
 3968SOL    HW112496   6.290   0.438   1.919 -0.0134 -0.2321  0.3119
 3968SOL    HW212497   6.234   0.551   2.002 -0.7591  0.7100 -1.4274
 3969SOL     OW12498   5.798   2.762   2.629  0.1383 -0.2359 -0.3742
 3969SOL    HW112499   5.811   2.815   2.707  0.3041  0.4998 -0.8899
 3969SOL    HW212500   5.856   2.801   2.563 -0.3040 -0.5761 -0.9784
 3970SOL     OW12501   6.837   4.983   3.494  0.2910 -0.8278  0.0159
 3970SOL    HW112502   6.915   4.963   3.546  0.8817 -0.0518 -0.5496
 3970SOL    HW212503   6.868   4.983   3.403 -0.5702 -1.4133 -0.2929
 3971SOL     OW12504   6.510   3.468   2.610 -0.3203  0.0155  0.6685
 3971SOL    HW112505   6.539   3.543   2.661 -1.8221  0.8296  0.3720
 3971SOL    HW212506   6.418   3.485   2.591 -0.1257 -0.8142 -1.3173
 3972SOL     OW12507   5.747   0.045   0.546 -0.0115  0.4005  0.4629
 3972SOL    HW112508   5.688  -0.022   0.513  0.1260 -0.2146  1.4231
 3972SOL    HW212509   5.709   0.071   0.631  0.6444  0.5937  0.7060
 3973SOL     OW12510   6.023   2.902   2.473 -0.0503  0.6591  0.1782
 3973SOL    HW112511   5.996   2.921   2.383 -0.9401  0.2358  0.3418
 3973SOL    HW212512   6.114   2.874   2.466 -0.5658 -0.8923 -0.7936
 3974SOL     OW12513   6.740   2.135   3.275  0.0703 -0.0618 -0.0409
 3974SOL    HW112514   6.666   2.099   3.226  1.7005 -1.5218 -1.5701
 3974SOL    HW212515   6.743   2.227   3.250 -1.5959  0.1935  0.5773
 3975SOL     OW12516   7.485   2.879   0.268 -0.3443  0.3576  0.3924
 3975SOL    HW112517   7.505   2.937   0.195 -1.9303 -1.2705 -1.4560
 3975SOL    HW212518   7.393   2.897   0.288 -0.6916 -1.0657  0.1791
 3976SOL     OW12519   6.800   3.045   2.433 -0.5604  0.0563 -0.3464
 3976SOL    HW112520   6.714   3.084   2.415 -1.8807 -2.8629 -0.8738
 3976SOL    HW212521   6.791   3.008   2.521  1.7202  3.3486  1.5308
 3977SOL     OW12522   5.722   2.735   2.285 -0.6738  0.2407  0.2914
 3977SOL    HW112523   5.748   2.659   2.338  0.2134 -0.2179 -0.7607
 3977SOL    HW212524   5.738   2.708   2.195  0.2660  1.8845 -0.0797
 3978SOL     OW12525   4.906   4.450   2.875  0.3753  0.0724 -0.0280
 3978SOL    HW112526   4.928   4.357   2.883  2.2418  0.5574  1.1385
 3978SOL    HW212527   4.892   4.480   2.965 -2.8707  0.4116 -0.5247
 3979SOL     OW12528   0.119   2.512   2.363 -0.3664 -0.3451 -0.3790
 3979SOL    HW112529   0.076   2.427   2.356 -1.4030  0.1472 -0.1061
 3979SOL    HW212530   0.162   2.509   2.449  0.4753 -0.9773 -0.8087
 3980SOL     OW12531   7.184   2.036   2.875  0.3391 -0.3983  1.1815
 3980SOL    HW112532   7.146   2.071   2.955 -0.8609 -1.0996  0.9531
 3980SOL    HW212533   7.192   1.942   2.892 -0.0342 -0.5680  0.4459
 3981SOL     OW12534   5.750   2.200   1.826  0.1704 -0.1328  0.1879
 3981SOL    HW112535   5.833   2.228   1.787  0.0344  1.1704  0.7986
 3981SOL    HW212536   5.730   2.117   1.783  1.9378 -0.6163  0.2484
 3982SOL     OW12537   5.584   2.912   1.847  0.2163 -0.2328 -0.2212
 3982SOL    HW112538   5.568   2.889   1.939  0.9271 -1.3657 -0.3725
 3982SOL    HW212539   5.646   2.847   1.816  3.2021  2.4593 -0.3832
 3983SOL     OW12540   6.528   2.287   1.049 -0.4709 -0.4813  0.2610
 3983SOL    HW112541   6.465   2.321   0.986  0.2864 -0.2140 -0.3682
 3983SOL    HW212542   6.519   2.192   1.044 -0.0828 -0.4767 -0.6025
 3984SOL     OW12543   6.678   0.775   2.890  0.1130 -0.4981  0.6864
 3984SOL    HW112544   6.723   0.786   2.974  2.1595 -0.3745 -0.3647
 3984SOL    HW212545   6.656   0.864   2.863 -1.6900 -0.6188  1.6372
 3985SOL     OW12546   6.022   3.622   0.456 -0.1150  0.0695  0.1790
 3985SOL    HW112547   5.984   3.681   0.521 -0.8507 -2.0977  1.8054
 3985SOL    HW212548   5.951   3.563   0.431  1.3516 -2.1984  1.0723
 3986SOL     OW12549   5.906   3.380   0.301  0.3392 -1.0638 -0.3030
 3986SOL    HW112550   5.910   3.287   0.279  1.1232 -1.0575 -0.2236
 3986SOL    HW212551   5.879   3.381   0.393  0.0599 -1.1981 -0.3812
 3987SOL     OW12552   7.390   2.882   3.018 -0.1779 -0.5704 -0.3945
 3987SOL    HW112553   7.347   2.901   3.102  0.7689  0.5781 -0.1335
 3987SOL    HW212554   7.326   2.910   2.952 -0.3455 -0.0540 -0.0254
 3988SOL     OW12555   6.317   3.093   0.303  0.2561  0.3831 -0.1623
 3988SOL    HW112556   6.308   3.056   0.215 -1.7494 -0.7769  0.4603
 3988SOL    HW212557   6.252   3.046   0.356  2.0227  0.3906  2.1887
 3989SOL     OW12558   6.397   2.760   3.384 -0.7120  0.0265  0.0960
 3989SOL    HW112559   6.378   2.853   3.376 -0.6537 -0.0018 -0.3596
 3989SOL    HW212560   6.368   2.738   3.473  0.8838  0.8623  0.8851
 3990SOL     OW12561   6.153   3.657   2.903  0.0350  0.1263 -0.3376
 3990SOL    HW112562   6.131   3.723   2.837 -2.0312  1.0011  1.1422
 3990SOL    HW212563   6.223   3.697   2.955 -1.5807  1.4816  0.9014
 3991SOL     OW12564   6.304   2.169   2.806 -0.4615  0.5084 -0.3551
 3991SOL    HW112565   6.391   2.145   2.776 -0.8993 -1.3967 -0.2296
 3991SOL    HW212566   6.250   2.166   2.728 -1.0534 -1.7375  0.0686
 3992SOL     OW12567   5.591   3.064   3.185  0.1882 -0.2240  0.5289
 3992SOL    HW112568   5.533   3.141   3.190 -1.1257 -1.1903  0.6162
 3992SOL    HW212569   5.655   3.087   3.118 -1.2080  0.2985 -0.6848
 3993SOL     OW12570   5.387   2.490   2.853 -0.3976  0.3520 -0.0101
 3993SOL    HW112571   5.342   2.406   2.844  0.6538 -0.1311 -1.1719
 3993SOL    HW212572   5.476   2.472   2.822  0.5275  1.3368  1.8995
 3994SOL     OW12573   6.251   3.547   2.606  0.1156 -0.0062 -0.6110
 3994SOL    HW112574   6.211   3.581   2.686  0.6957  2.1326 -1.1610
 3994SOL    HW212575   6.218   3.458   2.599 -0.6015  0.0222  1.5616
 3995SOL     OW12576   6.805   3.158   3.009  0.4308 -0.6183  0.1992
 3995SOL    HW112577   6.736   3.221   2.988  1.8009  0.7571 -0.3720
 3995SOL    HW212578   6.777   3.077   2.966 -0.2848  0.2220 -0.9973
 3996SOL     OW12579   7.030   3.754   1.844 -0.5356 -0.0468  0.0251
 3996SOL    HW112580   6.950   3.788   1.805 -0.3838 -0.1545 -0.3909
 3996SOL    HW212581   7.045   3.671   1.800  1.6434  1.4908 -2.4820
 3997SOL     OW12582   7.439   3.611   0.109 -0.9302 -0.0513  0.3569
 3997SOL    HW112583   7.530   3.609   0.081 -1.2364 -0.0427 -0.6990
 3997SOL    HW212584   7.442   3.602   0.204  0.2714  1.9646  0.5603
 3998SOL     OW12585   6.288   2.855   2.268 -0.8754 -0.5096 -0.1695
 3998SOL    HW112586   6.285   2.815   2.355 -2.7303  0.1459  0.1109
 3998SOL    HW212587   6.365   2.816   2.227 -0.8343 -2.0048  1.2070
 3999SOL     OW12588   4.735   3.079   2.535 -0.2994  0.6175  0.5733
 3999SOL    HW112589   4.679   3.002   2.520 -1.4601  1.8393 -2.0080
 3999SOL    HW212590   4.677   3.145   2.571 -0.7140  1.9268 -2.2074
 4000SOL     OW12591   6.908   2.411   0.339  0.5837  0.1164  0.4084
 4000SOL    HW112592   6.882   2.425   0.431 -2.6570  2.8492 -0.6888
 4000SOL    HW212593   6.893   2.318   0.324  1.0916 -0.3715  2.5870
 4001SOL     OW12594   0.652   2.404   2.646  0.2335 -0.1365 -0.1636
 4001SOL    HW112595   0.732   2.443   2.683  0.7502 -0.2829 -1.0803
 4001SOL    HW212596   0.615   2.352   2.717  1.3662 -0.6686  0.0597
 4002SOL     OW12597   6.039   2.840   3.103  0.1660 -0.1193  0.2525
 4002SOL    HW112598   6.126   2.814   3.076  0.3386  0.3902  0.3020
 4002SOL    HW212599   5.996   2.759   3.130 -0.2919 -0.7839 -2.2551
 4003SOL     OW12600   5.801   3.644   0.237 -0.1816 -0.0613 -0.2444
 4003SOL    HW112601   5.833   3.554   0.232  1.5179  0.5591 -3.2538
 4003SOL    HW212602   5.712   3.640   0.204 -0.3688 -0.7382  0.3314
 4004SOL     OW12603   7.196   2.464   0.036 -0.1252 -0.3971  0.3646
 4004SOL    HW112604   7.233   2.468  -0.053  0.9253 -1.8234  0.7009
 4004SOL    HW212605   7.186   2.556   0.061  1.0946  0.0383 -0.6151
 4005SOL     OW12606   5.634   2.135   2.064  0.1330  0.3461  0.2186
 4005SOL    HW112607   5.679   2.164   1.985  1.2206  0.0623  0.7070
 4005SOL    HW212608   5.626   2.213   2.118  1.4615  0.1297  0.7785
 4006SOL     OW12609   5.289   4.991   2.375 -0.0482  0.2995 -0.3261
 4006SOL    HW112610   5.367   4.947   2.341 -0.0949  1.7359 -2.4382
 4006SOL    HW212611   5.218   4.928   2.358  0.2781  0.0389 -0.7607
 4007SOL     OW12612   6.536   2.982   3.117  0.2092 -0.0679 -0.0531
 4007SOL    HW112613   6.591   2.997   3.194 -0.0745  0.1977  0.0998
 4007SOL    HW212614   6.468   3.048   3.124 -0.7856 -1.1024  0.3646
 4008SOL     OW12615   5.949   1.486   2.124  0.1339  0.0043 -0.2020
 4008SOL    HW112616   5.983   1.411   2.173 -0.8528 -0.5666 -0.3716
 4008SOL    HW212617   5.969   1.465   2.032  0.6078  0.3535 -0.1830
 4009SOL     OW12618   7.013   3.525   1.694  0.5626 -0.1704  0.5801
 4009SOL    HW112619   7.079   3.516   1.625  0.7981 -1.1716  0.9082
 4009SOL    HW212620   6.930   3.508   1.650  0.5649  0.5595  0.2750
 4010SOL     OW12621   6.863   4.093   3.356 -0.1017 -0.2506 -0.2728
 4010SOL    HW112622   6.872   3.998   3.348  0.3181 -0.1231 -1.4278
 4010SOL    HW212623   6.769   4.109   3.348 -0.0514 -0.4618 -1.4381
 4011SOL     OW12624   7.300   4.329   2.890 -0.4980  0.5565  0.0196
 4011SOL    HW112625   7.244   4.283   2.828  1.3679 -0.3516 -1.0792
 4011SOL    HW212626   7.294   4.421   2.865  0.5546  0.1577 -1.8504
 4012SOL     OW12627   0.145   1.535   1.160 -0.3124 -0.0158  0.3917
 4012SOL    HW112628   0.229   1.498   1.133 -0.5959  0.5559 -1.4161
 4012SOL    HW212629   0.157   1.629   1.154 -1.2561  0.0642 -0.5108
 4013SOL     OW12630   0.933   1.741   1.844  0.3609 -0.0346  0.1845
 4013SOL    HW112631   1.011   1.741   1.898  0.0555  0.2043  0.6332
 4013SOL    HW212632   0.894   1.827   1.858  0.9785  0.5543 -1.4571
 4014SOL     OW12633   6.784   4.426   0.253 -0.2612  0.0354  0.3229
 4014SOL    HW112634   6.785   4.424   0.349  1.8987  1.3755  0.3898
 4014SOL    HW212635   6.874   4.405   0.228 -0.9307 -0.8914 -1.4687
 4015SOL     OW12636   6.587   1.584   2.171  0.3357 -0.0750  0.1096
 4015SOL    HW112637   6.585   1.596   2.266 -0.0532  2.5015 -0.1346
 4015SOL    HW212638   6.496   1.572   2.146  0.1563  1.4198 -0.0842
 4016SOL     OW12639   5.179   3.108   1.527  0.2676 -0.0817  0.9225
 4016SOL    HW112640   5.126   3.091   1.449  2.3724  0.2572 -0.6829
 4016SOL    HW212641   5.255   3.051   1.516  1.6348  1.5484  1.5991
 4017SOL     OW12642   5.822   2.596   0.543 -0.6790  1.0459 -0.5301
 4017SOL    HW112643   5.900   2.593   0.599 -1.9946  1.1094  1.4035
 4017SOL    HW212644   5.847   2.653   0.471  1.6378 -0.3415 -0.9346
 4018SOL     OW12645   6.171   3.278   2.558  0.5303  0.4175  0.4026
 4018SOL    HW112646   6.079   3.298   2.572  0.1022 -1.0589 -0.0541
 4018SOL    HW212647   6.185   3.195   2.605  1.9253  1.1912  1.4208
 4019SOL     OW12648   6.064   2.859   1.645 -0.3923  0.3673  0.2798
 4019SOL    HW112649   6.034   2.949   1.662  0.7476  0.6948  0.6092
 4019SOL    HW212650   6.129   2.869   1.575  1.5527  0.1321  1.9623
 4020SOL     OW12651   6.112   3.027   1.105 -0.1239  0.4928  0.1977
 4020SOL    HW112652   6.138   3.119   1.108 -1.2503  0.8176  0.6077
 4020SOL    HW212653   6.187   2.980   1.141  0.3766  1.2758  0.2073
 4021SOL     OW12654   6.183   2.612   0.348 -0.8003 -0.0096  0.1926
 4021SOL    HW112655   6.140   2.552   0.285 -0.5764 -0.3976  0.4041
 4021SOL    HW212656   6.228   2.553   0.409  1.3067  0.3797 -0.8953
 4022SOL     OW12657   6.451   3.095   2.763 -0.2387 -0.1645 -0.2883
 4022SOL    HW112658   6.409   3.173   2.727  1.1246  1.2171  0.9889
 4022SOL    HW212659   6.527   3.128   2.811  0.4946 -2.3020  0.1410
 4023SOL     OW12660   6.682   2.882   2.655 -0.8314  0.0695  0.0854
 4023SOL    HW112661   6.651   2.829   2.582 -1.3495  1.8657 -1.0895
 4023SOL    HW212662   6.609   2.881   2.718 -1.9841  1.5250 -1.1497
 4024SOL     OW12663   0.897   2.518   2.690 -0.1358 -0.0787 -0.1311
 4024SOL    HW112664   0.941   2.559   2.764  2.3467 -1.5462 -0.6923
 4024SOL    HW212665   0.892   2.586   2.624  0.2273  0.4431  0.3701
 4025SOL     OW12666   5.060   3.679   2.536  0.2166  0.1868 -0.0948
 4025SOL    HW112667   5.081   3.598   2.583 -0.4610  0.5442  0.8440
 4025SOL    HW212668   5.120   3.679   2.461  3.1596  0.8145  2.0530
 4026SOL     OW12669   4.871   3.154   2.310  0.1970 -0.4080  0.2091
 4026SOL    HW112670   4.905   3.072   2.274 -0.0249  0.0353 -1.0601
 4026SOL    HW212671   4.856   3.135   2.402 -0.6609 -2.0781 -0.2283
 4027SOL     OW12672   6.462   3.891   1.994  0.4167 -0.4132 -0.5046
 4027SOL    HW112673   6.529   3.914   2.058  0.1431  0.9700 -0.6756
 4027SOL    HW212674   6.450   3.797   2.005  1.1717 -0.3980  0.6992
 4028SOL     OW12675   6.245   2.199   0.191 -0.3230  0.6053 -0.3684
 4028SOL    HW112676   6.209   2.111   0.192 -0.9026  0.8451  0.3824
 4028SOL    HW212677   6.337   2.187   0.167  0.0270 -0.3763  1.3379
 4029SOL     OW12678   5.358   3.677   2.508  0.1608 -0.3518  0.1528
 4029SOL    HW112679   5.412   3.754   2.526  1.5175 -1.1880 -0.1410
 4029SOL    HW212680   5.420   3.612   2.475 -1.0931 -1.2661 -0.4993
 4030SOL     OW12681   5.452   2.463   0.223  0.3531 -0.4803  0.1804
 4030SOL    HW112682   5.467   2.414   0.143  0.2249  0.2859 -0.3292
 4030SOL    HW212683   5.443   2.554   0.194 -3.6141 -0.5796  0.5527
 4031SOL     OW12684   6.888   3.796   2.930  0.7107  0.1174 -0.3297
 4031SOL    HW112685   6.848   3.724   2.979 -0.2956  0.5393 -0.4944
 4031SOL    HW212686   6.840   3.797   2.847 -1.1373  2.6142  0.6620
 4032SOL     OW12687   1.658   2.896   0.299  0.0142  0.3962  0.4138
 4032SOL    HW112688   1.621   2.919   0.384 -2.8826 -1.6889 -0.1258
 4032SOL    HW212689   1.584   2.898   0.238  1.3607 -1.1342 -1.4282
 4033SOL     OW12690   6.913   3.597   0.194 -0.1691  0.1791  0.0582
 4033SOL    HW112691   6.980   3.660   0.223 -0.3003  0.8073 -0.9601
 4033SOL    HW212692   6.867   3.642   0.123 -2.3334  0.1525  1.3495
 4034SOL     OW12693   5.857   2.968   2.227  0.2700  0.2518  0.2432
 4034SOL    HW112694   5.808   3.049   2.238 -0.4719  0.1400 -1.8082
 4034SOL    HW212695   5.805   2.902   2.273  0.2327  0.7004  0.8596
 4035SOL     OW12696   0.279   1.374   1.818 -0.1782 -0.1378  0.1186
 4035SOL    HW112697   0.290   1.412   1.731 -0.6216  1.9599  0.9195
 4035SOL    HW212698   0.191   1.337   1.818 -0.1824 -0.1247 -0.3185
 4036SOL     OW12699   0.305   3.356   2.280  0.9748 -0.6885 -0.1079
 4036SOL    HW112700   0.258   3.438   2.295 -0.5847 -1.4866 -0.3790
 4036SOL    HW212701   0.392   3.382   2.252  0.9788  0.8597  1.2574
 4037SOL     OW12702   6.215   4.376   2.047 -0.3642  0.0970  0.2156
 4037SOL    HW112703   6.296   4.377   2.098  0.0193  1.9996 -0.3214
 4037SOL    HW212704   6.185   4.467   2.049 -1.9288 -0.3719 -0.4794
 4038SOL     OW12705   6.956   2.927   3.246 -0.0310 -0.4107 -0.0542
 4038SOL    HW112706   6.988   2.958   3.162  0.8830 -1.1140  0.0103
 4038SOL    HW212707   6.869   2.964   3.255  0.8006  1.7051 -0.2005
 4039SOL     OW12708   6.483   3.388   2.182  0.3031  0.5330  0.0248
 4039SOL    HW112709   6.414   3.368   2.245  0.7351  2.8086  1.2995
 4039SOL    HW212710   6.462   3.476   2.150  2.2078  0.9774 -0.1099
 4040SOL     OW12711   1.090   4.889   2.174  0.1625 -0.1648  0.2586
 4040SOL    HW112712   1.065   4.971   2.216 -0.4579  0.0165 -0.4556
 4040SOL    HW212713   1.185   4.896   2.163  0.2598 -0.0068  1.1714
 4041SOL     OW12714   7.208   1.975   2.389  0.1730 -0.4931 -0.0081
 4041SOL    HW112715   7.150   1.903   2.364  0.1359 -0.5240  0.1625
 4041SOL    HW212716   7.189   2.045   2.327  1.0609 -1.0546 -0.9397
 4042SOL     OW12717   5.327   4.365   3.361  0.1263  0.6054  0.1791
 4042SOL    HW112718   5.419   4.350   3.379 -0.4473 -0.6694  2.4493
 4042SOL    HW212719   5.323   4.381   3.266  2.3753 -1.5725 -0.3790
 4043SOL     OW12720   0.511   3.391   2.153 -0.2370  0.2329 -0.6544
 4043SOL    HW112721   0.466   3.372   2.071  1.8265 -1.9037 -1.3921
 4043SOL    HW212722   0.604   3.378   2.134  0.5798  2.2024  1.3850
 4044SOL     OW12723   6.569   3.144   0.383  0.2863 -0.3457 -0.0725
 4044SOL    HW112724   6.491   3.128   0.330  0.2125 -1.1301  0.2698
 4044SOL    HW212725   6.591   3.236   0.365 -0.6853 -0.1251 -0.1966
 4045SOL     OW12726   6.773   3.358   2.169  0.2868  0.0711  0.2067
 4045SOL    HW112727   6.688   3.359   2.124  0.5570  1.8880 -0.3559
 4045SOL    HW212728   6.752   3.376   2.261  0.0363  0.4519  0.0809
 4046SOL     OW12729   6.829   2.698   1.792  0.4507  0.3083 -0.2750
 4046SOL    HW112730   6.924   2.709   1.803  0.6705  0.2454 -1.8634
 4046SOL    HW212731   6.791   2.775   1.833  1.2568  0.8721 -0.5594
 4047SOL     OW12732   5.375   2.379   3.488 -0.0738  0.0289 -0.1766
 4047SOL    HW112733   5.387   2.287   3.512 -0.1460  0.0983  0.1207
 4047SOL    HW212734   5.287   2.382   3.450  0.4434 -0.2963 -1.4931
 4048SOL     OW12735   4.674   3.021   0.262  0.3597 -0.4549 -0.5186
 4048SOL    HW112736   4.704   3.014   0.172 -0.5654  1.4903 -1.0338
 4048SOL    HW212737   4.655   3.114   0.274 -0.5215 -0.8212  1.3640
 4049SOL     OW12738   5.941   3.402   2.635 -0.5360  0.1821 -0.2243
 4049SOL    HW112739   5.913   3.349   2.709  0.3951  0.6577  0.4834
 4049SOL    HW212740   5.885   3.479   2.638 -0.2783  0.3523  0.1799
 4050SOL     OW12741   7.297   1.803   2.940 -0.1035 -0.2360  0.0550
 4050SOL    HW112742   7.273   1.784   3.031  0.4491 -1.5966 -0.0728
 4050SOL    HW212743   7.389   1.830   2.945 -0.2195  0.1850 -0.0481
 4051SOL     OW12744   6.097   3.388   1.346  0.1142 -0.1510 -0.1232
 4051SOL    HW112745   6.010   3.355   1.323  0.1768 -0.1606 -0.3453
 4051SOL    HW212746   6.098   3.478   1.315 -0.1582  0.1648  0.7414
 4052SOL     OW12747   7.319   1.708   3.194  0.2102  0.1463  0.0449
 4052SOL    HW112748   7.313   1.768   3.268  1.6531 -1.5317  1.6369
 4052SOL    HW212749   7.303   1.621   3.232  0.0791 -0.6689 -1.7874
 4053SOL     OW12750   5.347   4.209   2.420 -0.1925  0.0673  0.2427
 4053SOL    HW112751   5.341   4.162   2.503 -0.7558  1.7176  1.1663
 4053SOL    HW212752   5.261   4.249   2.409  0.1595  0.5771 -0.7182
 4054SOL     OW12753   5.840   2.263   2.586 -0.1082  0.0349 -0.0893
 4054SOL    HW112754   5.931   2.258   2.557  0.0922  0.0111  0.5336
 4054SOL    HW212755   5.815   2.354   2.571  0.9814  0.8789  2.5141
 4055SOL     OW12756   7.197   1.438   3.412 -0.7151  0.5517 -0.5448
 4055SOL    HW112757   7.129   1.466   3.351 -0.6059  0.0027 -0.9264
 4055SOL    HW212758   7.220   1.349   3.383  1.6950  1.4771 -1.8322
 4056SOL     OW12759   7.229   2.021   1.489  0.2976  0.5779  0.1218
 4056SOL    HW112760   7.245   2.108   1.527 -1.1609  0.6279  0.6886
 4056SOL    HW212761   7.143   2.029   1.448  0.6734 -0.2683 -0.8708
 4057SOL     OW12762   5.605   3.341   3.411 -0.0208 -0.2208  0.0800
 4057SOL    HW112763   5.658   3.380   3.480  1.2967 -0.5983 -0.6808
 4057SOL    HW212764   5.606   3.247   3.431 -0.8902 -0.1790  0.3677
 4058SOL     OW12765   6.192   1.434   1.750  0.0056 -0.4474  0.0774
 4058SOL    HW112766   6.180   1.413   1.658  1.1469  1.6071 -0.5995
 4058SOL    HW212767   6.151   1.520   1.761 -1.7954 -1.4585  1.9737
 4059SOL     OW12768   5.319   3.854   2.875  0.7273  0.1459  0.3598
 4059SOL    HW112769   5.277   3.798   2.809  1.2337 -1.3390  1.2380
 4059SOL    HW212770   5.317   3.801   2.955  0.8041  1.6023  1.3669
 4060SOL     OW12771   7.013   3.940   0.576 -0.0632 -0.3138 -0.2307
 4060SOL    HW112772   6.978   3.866   0.626  0.6270  1.5743  3.3861
 4060SOL    HW212773   7.094   3.906   0.538 -0.6600 -1.8876 -0.1730
 4061SOL     OW12774   6.571   3.431   0.362 -0.0390 -0.3727  0.3758
 4061SOL    HW112775   6.585   3.519   0.328  0.8533 -0.1750  1.2071
 4061SOL    HW212776   6.476   3.419   0.362 -0.1167  0.1265 -0.8654
 4062SOL     OW12777   7.007   2.918   0.704  0.0063  0.1211  0.1187
 4062SOL    HW112778   7.023   2.901   0.796  1.3235  0.0024 -0.1133
 4062SOL    HW212779   7.073   2.983   0.679 -1.7166  1.8416 -0.2350
 4063SOL     OW12780   5.752   3.627   3.450  0.1724 -0.3159 -0.2531
 4063SOL    HW112781   5.683   3.688   3.475 -0.1499  0.2703 -2.3453
 4063SOL    HW212782   5.833   3.676   3.461  0.0227  0.0046 -0.5697
 4064SOL     OW12783   7.429   3.576   2.657 -0.2996 -0.1566  0.1483
 4064SOL    HW112784   7.469   3.507   2.604 -0.9611 -0.6263  0.2609
 4064SOL    HW212785   7.350   3.601   2.609 -0.2683  0.2530  0.3050
 4065SOL     OW12786   6.456   2.474   3.505  0.2638  0.0113  0.2348
 4065SOL    HW112787   6.517   2.547   3.497  0.1252  0.0856 -0.2127
 4065SOL    HW212788   6.373   2.514   3.532 -0.1066  0.1837 -1.0494
 4066SOL     OW12789   6.547   1.005   2.806 -0.1112 -0.3370 -0.0622
 4066SOL    HW112790   6.506   1.091   2.800  0.5036 -0.0900 -1.0860
 4066SOL    HW212791   6.596   0.996   2.724  2.3334 -0.3742  1.3218
 4067SOL     OW12792   7.282   3.528   0.601 -0.1652  0.0273  0.2255
 4067SOL    HW112793   7.234   3.459   0.647 -0.9591  1.0352  0.9899
 4067SOL    HW212794   7.354   3.551   0.660  0.9758 -1.1105 -0.6780
 4068SOL     OW12795   6.907   4.603   1.915 -0.0550  0.5018 -0.6024
 4068SOL    HW112796   6.821   4.562   1.919 -0.3285  1.1422  0.4651
 4068SOL    HW212797   6.925   4.631   2.005  1.5614 -0.2108 -0.6671
 4069SOL     OW12798   5.964   4.167   2.538  0.4069  0.1436  0.6509
 4069SOL    HW112799   5.871   4.155   2.559  0.4803  0.6174  1.2511
 4069SOL    HW212800   5.968   4.154   2.443  0.0902 -2.0830  0.8774
 4070SOL     OW12801   7.026   3.009   3.504  0.3109  0.3033 -0.0580
 4070SOL    HW112802   6.947   3.049   3.540 -0.1250 -0.6094  0.0324
 4070SOL    HW212803   7.002   2.983   3.416 -0.3446 -2.2768  0.8056
 4071SOL     OW12804   6.614   2.682   2.488 -0.0864  0.4148  0.1833
 4071SOL    HW112805   6.599   2.589   2.503  0.3446  0.0827 -1.2826
 4071SOL    HW212806   6.661   2.686   2.405 -0.4546  1.9615  0.0081
 4072SOL     OW12807   6.349   3.021   3.405 -0.4021 -0.0635  0.7586
 4072SOL    HW112808   6.373   3.060   3.321 -1.0961 -2.2054 -0.4989
 4072SOL    HW212809   6.353   3.094   3.467  0.8349  1.4283 -0.9706
 4073SOL     OW12810   0.076   3.208   2.222 -0.2423 -0.1013  0.2760
 4073SOL    HW112811  -0.007   3.255   2.226 -0.6012 -0.7955  1.5179
 4073SOL    HW212812   0.142   3.277   2.222 -0.8062  0.4552 -0.6245
 4074SOL     OW12813   6.346   3.741   3.096  0.9055 -0.4821  0.0357
 4074SOL    HW112814   6.323   3.787   3.177 -0.4608  1.1787 -1.2299
 4074SOL    HW212815   6.436   3.767   3.078  1.2757 -0.9853  1.0755
 4075SOL     OW12816   7.276   2.383   3.337  0.0617 -0.3353 -0.0531
 4075SOL    HW112817   7.251   2.358   3.248 -1.8162  2.2363 -0.3547
 4075SOL    HW212818   7.361   2.427   3.326  1.0689 -2.1866 -0.1432
 4076SOL     OW12819   6.449   2.485   1.194 -0.4299 -0.2955 -0.0654
 4076SOL    HW112820   6.510   2.416   1.168 -0.4327 -0.0803 -0.6607
 4076SOL    HW212821   6.376   2.478   1.132  0.2525  1.1877 -1.1147
 4077SOL     OW12822   6.197   2.965   0.075 -0.9795 -0.2550 -0.1428
 4077SOL    HW112823   6.162   2.878   0.053 -1.1683 -0.4224  0.7731
 4077SOL    HW212824   6.255   2.986   0.003 -2.8156 -0.0510 -1.6433
 4078SOL     OW12825   7.412   3.245   3.312  0.0115 -0.0429 -0.5318
 4078SOL    HW112826   7.382   3.263   3.401 -1.0781 -2.5674 -0.2965
 4078SOL    HW212827   7.484   3.182   3.324 -0.5231 -0.8425 -1.4241
 4079SOL     OW12828   5.110   3.636   1.926 -0.1605 -0.0020 -0.1445
 4079SOL    HW112829   5.163   3.697   1.977 -0.3211 -0.7629  0.9540
 4079SOL    HW212830   5.142   3.647   1.836  0.5048  0.9555  0.1876
 4080SOL     OW12831   0.162   2.678   0.209 -0.2341  0.3639 -0.2926
 4080SOL    HW112832   0.111   2.651   0.133 -0.1377 -1.0447  0.1131
 4080SOL    HW212833   0.100   2.725   0.265 -0.7211 -0.0489 -0.4807
 4081SOL     OW12834   6.526   2.324   2.997  0.5927  0.1788  0.6031
 4081SOL    HW112835   6.524   2.334   3.092 -0.2087 -1.4225  0.7914
 4081SOL    HW212836   6.437   2.297   2.973  0.9815 -0.2260 -0.4875
 4082SOL     OW12837   7.174   3.724   2.397  0.1229 -0.0490 -0.2935
 4082SOL    HW112838   7.180   3.701   2.304 -1.2873  0.2231 -0.4797
 4082SOL    HW212839   7.088   3.692   2.424  0.4948 -0.0740  0.9175
 4083SOL     OW12840   6.636   4.439   3.407 -0.0796  0.0948 -0.4018
 4083SOL    HW112841   6.703   4.507   3.418 -2.2209  2.3354 -0.3712
 4083SOL    HW212842   6.566   4.465   3.467 -1.7835 -1.0654 -1.8180
 4084SOL     OW12843   7.030   3.229   2.171 -0.3802 -0.9050  0.8579
 4084SOL    HW112844   6.935   3.227   2.171 -0.3819 -1.5634 -0.6478
 4084SOL    HW212845   7.056   3.213   2.080  1.1590 -0.1981  1.1291
 4085SOL     OW12846   7.222   2.175   0.056 -0.3084  0.3817  0.1110
 4085SOL    HW112847   7.196   2.148  -0.032 -1.5875  2.5036 -0.2105
 4085SOL    HW212848   7.235   2.269   0.050  0.8243  0.3923  1.9346
 4086SOL     OW12849   1.563   1.311   0.069  0.2221  0.2531 -0.2735
 4086SOL    HW112850   1.493   1.343   0.125  0.2110 -0.7305  0.3028
 4086SOL    HW212851   1.576   1.380   0.004 -0.8151  0.7376  0.0165
 4087SOL     OW12852   6.032   2.212   1.672 -0.0045 -0.4946 -0.4713
 4087SOL    HW112853   6.063   2.150   1.605  0.2526  0.2256 -1.0278
 4087SOL    HW212854   6.112   2.245   1.713 -0.0757  0.4105 -1.0369
 4088SOL     OW12855   6.028   4.392   2.787 -0.1432  0.5553  0.1845
 4088SOL    HW112856   6.030   4.310   2.739  1.2170  0.2007  0.8046
 4088SOL    HW212857   6.118   4.424   2.785 -0.3820  1.3610  1.0896
 4089SOL     OW12858   5.280   4.156   0.474 -0.4196 -0.0297 -0.3048
 4089SOL    HW112859   5.232   4.160   0.392  0.8388  2.0557 -0.9928
 4089SOL    HW212860   5.221   4.196   0.538 -0.9057 -0.5478 -0.4136
 4090SOL     OW12861   5.790   3.785   1.287 -0.1946  0.5765 -0.4259
 4090SOL    HW112862   5.791   3.877   1.263  0.9451  0.0640 -2.5865
 4090SOL    HW212863   5.739   3.742   1.218  1.9638 -0.7831 -1.2714
 4091SOL     OW12864   6.546   4.641   2.727  0.4415  0.5588  0.0594
 4091SOL    HW112865   6.613   4.618   2.664  1.2187  0.4660  0.9060
 4091SOL    HW212866   6.594   4.678   2.801 -0.2035 -1.7927  1.7507
 4092SOL     OW12867   6.397   0.171   2.072  0.7075  0.1448 -0.4989
 4092SOL    HW112868   6.463   0.138   2.013 -0.3079 -1.8245 -0.6103
 4092SOL    HW212869   6.318   0.179   2.018  0.3413  0.5096  0.0745
 4093SOL     OW12870   7.022   0.584   0.644  0.4391  0.2543 -0.2894
 4093SOL    HW112871   6.991   0.669   0.613 -0.7926  0.2325  0.7941
 4093SOL    HW212872   6.982   0.521   0.584 -1.3976  0.2530  0.8656
 4094SOL     OW12873   6.550   5.120   1.650  0.0274 -0.6852  0.4484
 4094SOL    HW112874   6.513   5.167   1.575  2.4123 -0.3622 -0.6235
 4094SOL    HW212875   6.569   5.189   1.714 -0.4220 -0.7475  0.6526
 4095SOL     OW12876   7.443   4.374   3.127 -0.1122 -0.1763 -0.1102
 4095SOL    HW112877   7.414   4.341   3.042  0.0499 -0.3906 -0.0848
 4095SOL    HW212878   7.461   4.466   3.112  0.6016 -0.3681 -0.4925
 4096SOL     OW12879   6.562   4.925   2.306  0.7822 -0.1888 -0.1587
 4096SOL    HW112880   6.558   4.879   2.222 -1.2903 -1.2343  0.4382
 4096SOL    HW212881   6.512   5.005   2.293  0.5308 -0.3111  0.0303
 4097SOL     OW12882   6.960   4.999   1.853 -0.2168  0.6864 -0.3310
 4097SOL    HW112883   6.885   4.981   1.910 -0.2006  1.3939 -0.0758
 4097SOL    HW212884   7.033   4.953   1.894  0.0187  2.0055  0.8059
 4098SOL     OW12885   5.066   4.541   0.669 -0.3104  0.1118  0.3560
 4098SOL    HW112886   5.146   4.513   0.715 -0.5823  1.2844  1.6048
 4098SOL    HW212887   5.058   4.633   0.691 -2.0029  0.0176  0.2206
 4099SOL     OW12888   0.065   4.639   0.760 -0.8668 -0.1000 -0.6015
 4099SOL    HW112889   0.125   4.576   0.801  0.5348 -0.9039 -3.5577
 4099SOL    HW212890   0.123   4.708   0.728 -2.1311  1.5042  0.4292
 4100SOL     OW12891   5.463   3.976   3.520 -0.1678 -0.4532  0.0311
 4100SOL    HW112892   5.457   3.884   3.547  0.5683 -0.7741 -0.8408
 4100SOL    HW212893   5.535   4.012   3.572 -1.8968  0.2846  2.0550
 4101SOL     OW12894   7.458   3.657   2.242 -0.4795 -0.0936  0.5605
 4101SOL    HW112895   7.494   3.628   2.158 -1.3706  1.1210 -0.2786
 4101SOL    HW212896   7.400   3.586   2.269  1.4143 -1.4555  1.2571
 4102SOL     OW12897   4.660   4.593   1.610 -0.5979 -0.3066  0.5640
 4102SOL    HW112898   4.726   4.606   1.542 -0.9079  0.0408  0.3233
 4102SOL    HW212899   4.710   4.570   1.688 -0.1061  0.9650  0.6486
 4103SOL     OW12900   7.321   3.366   0.372  0.7427  0.2273 -0.4784
 4103SOL    HW112901   7.271   3.426   0.428  2.1178 -0.3150  1.4543
 4103SOL    HW212902   7.264   3.350   0.297 -0.4872  2.3654 -0.0989
 4104SOL     OW12903   0.001   5.273   1.570  0.2442 -0.7033 -0.0494
 4104SOL    HW112904  -0.017   5.300   1.480 -0.0112  0.6363  0.3787
 4104SOL    HW212905   0.090   5.237   1.566  0.6909  0.3985 -0.6424
 4105SOL     OW12906   5.605   0.757   1.617 -0.2486 -0.3353 -0.1933
 4105SOL    HW112907   5.663   0.809   1.561  0.0603  1.1944  1.4472
 4105SOL    HW212908   5.589   0.677   1.567  2.2080 -0.2507 -1.2842
 4106SOL     OW12909   5.952   5.365   3.365  0.3123  0.4065  0.1949
 4106SOL    HW112910   5.883   5.426   3.339 -1.7564 -2.7525 -2.6836
 4106SOL    HW212911   5.916   5.320   3.442  0.6537  0.9654  0.6877
 4107SOL     OW12912   5.709   0.615   2.962 -0.2124 -0.1356 -0.5626
 4107SOL    HW112913   5.705   0.701   3.003  0.8943 -0.4488  0.2250
 4107SOL    HW212914   5.652   0.560   3.016  1.2883 -0.5621  0.6489
 4108SOL     OW12915   5.939   4.079   2.279 -0.1254  0.0797  0.3818
 4108SOL    HW112916   5.845   4.061   2.279  0.1863 -2.1153  2.1289
 4108SOL    HW212917   5.951   4.148   2.214 -2.7268 -0.6449 -1.0165
 4109SOL     OW12918   5.893   3.997   3.540  0.0958 -0.3627 -0.3921
 4109SOL    HW112919   5.800   4.001   3.565 -0.2054  1.4247 -1.6092
 4109SOL    HW212920   5.903   4.068   3.477  1.6509 -2.2956 -2.4534
 4110SOL     OW12921   6.071   0.679   3.080  0.0375  0.1340 -0.3195
 4110SOL    HW112922   6.031   0.640   3.158  0.0002  0.6698 -0.0643
 4110SOL    HW212923   6.096   0.605   3.026 -1.1322 -0.2214 -0.4018
 4111SOL     OW12924   0.345   0.706   0.129 -0.8367  0.6421 -0.1621
 4111SOL    HW112925   0.386   0.752   0.056  1.0716 -0.8948 -0.1365
 4111SOL    HW212926   0.418   0.680   0.185 -2.1130  0.2306  1.3910
 4112SOL     OW12927   0.472   5.097   2.652 -0.1318  0.0899 -0.1973
 4112SOL    HW112928   0.496   5.180   2.611 -3.0934  1.2255  0.1144
 4112SOL    HW212929   0.377   5.092   2.642 -0.3370 -2.1182  1.9365
 4113SOL     OW12930   5.360   4.038   2.612 -0.2114 -0.5849 -0.1542
 4113SOL    HW112931   5.440   4.012   2.657  1.0797 -0.9105 -2.5114
 4113SOL    HW212932   5.297   3.969   2.634 -0.0570 -0.1338  2.0184
 4114SOL     OW12933   7.337   4.666   0.229 -0.2480  0.2629 -0.2060
 4114SOL    HW112934   7.299   4.634   0.311  0.2896  0.5788  0.1703
 4114SOL    HW212935   7.261   4.690   0.176 -0.8238 -3.4706 -1.3279
 4115SOL     OW12936   6.775   4.492   0.985  0.2845  0.3522 -0.3094
 4115SOL    HW112937   6.828   4.503   1.064 -0.3832  1.2991  0.0270
 4115SOL    HW212938   6.717   4.569   0.984 -2.9999 -1.8809  0.8110
 4116SOL     OW12939   5.780   4.880   0.340  0.0672  0.5192 -0.1426
 4116SOL    HW112940   5.787   4.877   0.435 -2.8504 -0.1690  0.1503
 4116SOL    HW212941   5.798   4.971   0.318 -2.6453  1.6078  1.5476
 4117SOL     OW12942   5.285   0.119   1.932 -0.7164 -0.2820  0.0888
 4117SOL    HW112943   5.340   0.042   1.920  1.3631  1.0673  0.4054
 4117SOL    HW212944   5.228   0.098   2.006  0.6818 -1.0591  0.9763
 4118SOL     OW12945   6.654   5.442   2.752 -0.1089  0.3274  0.5925
 4118SOL    HW112946   6.637   5.454   2.846 -1.8784 -1.6128  0.5992
 4118SOL    HW212947   6.745   5.469   2.740 -0.4431  2.5943  2.4466
 4119SOL     OW12948   4.395   2.886   1.784  0.1368 -0.6940 -0.4653
 4119SOL    HW112949   4.354   2.961   1.741  1.0468 -0.8708 -1.6884
 4119SOL    HW212950   4.442   2.841   1.714  3.6047  0.2877  1.0058
 4120SOL     OW12951   5.553   5.134   3.487 -0.0899  0.3613 -0.2781
 4120SOL    HW112952   5.521   5.223   3.471  0.6829  0.4173 -1.6402
 4120SOL    HW212953   5.648   5.144   3.493  0.0265 -0.4073 -0.7131
 4121SOL     OW12954   5.056   3.917   3.532  0.1218 -0.4467 -0.1918
 4121SOL    HW112955   5.121   3.987   3.535 -0.6019  0.2253  0.0723
 4121SOL    HW212956   5.104   3.842   3.498  0.7382  0.3622 -1.1627
 4122SOL     OW12957   7.152   4.142   3.404  0.2255 -0.3462  0.1409
 4122SOL    HW112958   7.200   4.224   3.398 -0.3072 -0.0919 -1.0248
 4122SOL    HW212959   7.061   4.168   3.419  0.0009 -0.7057 -0.5611
 4123SOL     OW12960   0.621   1.148   2.544 -0.0612 -0.0567  0.2543
 4123SOL    HW112961   0.611   1.054   2.563 -0.2997 -0.2242 -0.6620
 4123SOL    HW212962   0.714   1.157   2.523 -0.1263 -0.1819 -0.1049
 4124SOL     OW12963   5.477   3.774   1.941 -0.2935  0.2431  0.9521
 4124SOL    HW112964   5.492   3.712   1.870 -0.7992 -0.6510  1.6076
 4124SOL    HW212965   5.508   3.858   1.906  1.2947 -0.5269  0.3922
 4125SOL     OW12966   7.101   5.013   1.104  0.3831 -0.2569 -0.8334
 4125SOL    HW112967   7.185   4.968   1.096 -0.2312 -1.7479  0.6281
 4125SOL    HW212968   7.102   5.078   1.034  3.0605  0.2905 -0.3709
 4126SOL     OW12969   5.575   5.325   2.044 -0.1598 -0.2650 -0.2047
 4126SOL    HW112970   5.505   5.362   2.098  0.9639  2.6239 -0.5499
 4126SOL    HW212971   5.647   5.310   2.105 -1.0139 -3.4589  0.1936
 4127SOL     OW12972   7.066   3.552   3.389 -0.4609  0.2093  0.3068
 4127SOL    HW112973   7.139   3.571   3.448 -0.0039 -0.3154 -0.0747
 4127SOL    HW212974   7.097   3.579   3.303  0.2905 -2.2748 -0.2992
 4128SOL     OW12975   7.148   3.735   0.049  0.0358 -0.5103  0.1538
 4128SOL    HW112976   7.128   3.825   0.073  2.0252  0.1324 -0.3848
 4128SOL    HW212977   7.214   3.707   0.113  1.1900 -0.7259 -1.0712
 4129SOL     OW12978   5.549   4.165   3.245  0.4158  0.4982 -0.2452
 4129SOL    HW112979   5.608   4.209   3.306  1.6137 -0.1955 -0.8668
 4129SOL    HW212980   5.567   4.206   3.161  1.0512 -0.6832 -0.7037
 4130SOL     OW12981   4.740   4.445   1.874  0.2142  0.3135 -0.2011
 4130SOL    HW112982   4.727   4.356   1.907  0.8285  0.4789  0.5061
 4130SOL    HW212983   4.708   4.501   1.945  1.0534  0.6686 -0.0996
 4131SOL     OW12984   6.061   4.606   0.345 -0.2157 -0.0037 -0.3498
 4131SOL    HW112985   6.066   4.700   0.366  1.0465  0.1639 -1.2746
 4131SOL    HW212986   6.142   4.570   0.381 -0.9787 -0.8877  0.5498
 4132SOL     OW12987   6.610   4.317   0.754  0.1906 -0.4188  0.1441
 4132SOL    HW112988   6.553   4.269   0.815  0.4900  0.4413  1.1384
 4132SOL    HW212989   6.557   4.393   0.728  0.2713 -0.4963 -0.2470
 4133SOL     OW12990   5.736   4.469   0.985 -0.2908 -0.3346  0.4324
 4133SOL    HW112991   5.777   4.452   1.070  0.2891  1.1979  0.4840
 4133SOL    HW212992   5.712   4.382   0.952  4.1798 -1.5945 -0.2182
 4134SOL     OW12993   6.267   3.479   0.678 -0.2379  0.3765 -0.2676
 4134SOL    HW112994   6.200   3.410   0.683  1.0967 -0.9586  0.1325
 4134SOL    HW212995   6.308   3.465   0.593  2.2009 -1.5386  1.0787
 4135SOL     OW12996   7.093   5.215   0.056 -0.0701 -0.1599 -0.1759
 4135SOL    HW112997   7.050   5.151   0.113  2.3922 -0.2111  1.8171
 4135SOL    HW212998   7.022   5.267   0.020 -1.8602  0.5539  3.8436
 4136SOL     OW12999   6.557   4.695   0.922 -0.1754  0.5132 -0.3460
 4136SOL    HW113000   6.535   4.729   1.008  0.1232  0.6695 -0.3285
 4136SOL    HW213001   6.552   4.771   0.864  1.2176  0.7620 -0.1799
 4137SOL     OW13002   6.761   5.017   1.467  0.0804  0.0122  0.1103
 4137SOL    HW113003   6.682   4.970   1.441 -0.5513  1.0628  0.1009
 4137SOL    HW213004   6.733   5.075   1.537  1.2133 -0.8476  1.3522
 4138SOL     OW13005   4.168   4.102   3.118  0.3650  0.6485 -0.3712
 4138SOL    HW113006   4.098   4.083   3.180  1.7913 -0.4130  0.9583
 4138SOL    HW213007   4.160   4.196   3.101 -0.9448  0.6726  0.2913
 4139SOL     OW13008   5.787   4.527   0.066 -0.0243  0.2011 -0.5250
 4139SOL    HW113009   5.761   4.573   0.145  1.0182 -2.3337  1.4513
 4139SOL    HW213010   5.877   4.555   0.050  0.7381 -1.3108  0.8891
 4140SOL     OW13011   0.308   4.873   1.826 -0.4983  0.1153  0.2520
 4140SOL    HW113012   0.299   4.952   1.879 -1.4915  0.4455 -0.3722
 4140SOL    HW213013   0.337   4.806   1.887  0.2182  0.9252  0.8205
 4141SOL     OW13014   5.974   3.739   0.041 -0.0522  0.1886  0.4129
 4141SOL    HW113015   5.920   3.718   0.117  1.1494  1.0209  1.5426
 4141SOL    HW213016   5.936   3.820   0.007  0.5213  0.8541  1.2947
 4142SOL     OW13017   7.093   5.329   0.373  0.1486 -0.1782  0.4926
 4142SOL    HW113018   7.183   5.302   0.393  0.3547 -0.0625 -0.2620
 4142SOL    HW213019   7.100   5.379   0.291 -0.6283 -0.3327  0.3243
 4143SOL     OW13020   5.714   2.757   3.452  0.3478 -0.1393  0.0160
 4143SOL    HW113021   5.663   2.709   3.518 -0.0612 -1.8215 -1.4197
 4143SOL    HW213022   5.657   2.758   3.374  0.9218  1.5292 -0.4101
 4144SOL     OW13023   5.626   3.587   3.190 -0.8374  0.1690 -0.4840
 4144SOL    HW113024   5.682   3.634   3.128 -0.9003  0.4151 -0.3539
 4144SOL    HW213025   5.666   3.603   3.275 -0.0989 -1.1040 -0.5757
 4145SOL     OW13026   6.939   3.434   1.269  0.1141 -0.2149 -0.0120
 4145SOL    HW113027   6.872   3.502   1.274  0.2718 -0.1246  1.0352
 4145SOL    HW213028   7.012   3.469   1.320 -0.1867 -1.6009  1.4065
 4146SOL     OW13029   6.312   4.472   1.702 -0.3659  0.0365 -0.2419
 4146SOL    HW113030   6.230   4.431   1.675  0.7872 -1.5760 -1.4693
 4146SOL    HW213031   6.347   4.512   1.623  1.2510 -1.5221 -0.3717
 4147SOL     OW13032   5.590   3.834   2.559 -0.7700  0.5970  0.3877
 4147SOL    HW113033   5.643   3.907   2.590  2.2069 -1.6295  0.9250
 4147SOL    HW213034   5.642   3.794   2.489 -0.9134 -2.5669  1.9114
 4148SOL     OW13035   6.743   4.056   3.013 -0.2194 -0.1168  0.4458
 4148SOL    HW113036   6.831   4.045   3.049 -0.5274  0.4219  1.3850
 4148SOL    HW213037   6.710   4.136   3.054 -1.2813 -0.5084  0.3774
 4149SOL     OW13038   7.367   0.171   0.319  0.0489  0.2462 -0.4586
 4149SOL    HW113039   7.451   0.124   0.315 -0.4550 -0.6310 -1.4823
 4149SOL    HW213040   7.311   0.124   0.257 -0.8537  1.5166 -0.6425
 4150SOL     OW13041   6.313   4.114   3.348 -0.4066 -0.1995  0.6992
 4150SOL    HW113042   6.345   4.026   3.367 -2.0703 -0.7445  1.1434
 4150SOL    HW213043   6.286   4.149   3.433  1.8061  1.4374  0.8048
 4151SOL     OW13044   5.236   5.171   0.492  0.0137  0.6214  0.3094
 4151SOL    HW113045   5.164   5.232   0.476  1.2002  1.7160 -1.0711
 4151SOL    HW213046   5.211   5.126   0.573 -0.9634  2.8271  1.3172
 4152SOL     OW13047   5.785   4.055   1.214  0.5077  0.1811  0.1542
 4152SOL    HW113048   5.784   4.127   1.277 -1.4504  0.2041  0.1583
 4152SOL    HW213049   5.738   4.089   1.138  0.2184 -0.8261 -0.1407
 4153SOL     OW13050   6.483   0.409   3.335 -0.2069  0.0171 -0.6670
 4153SOL    HW113051   6.412   0.447   3.387  0.6948  0.8369  0.0009
 4153SOL    HW213052   6.479   0.457   3.252  0.3762  1.0086 -0.1480
 4154SOL     OW13053   5.042   4.769   2.795  0.2333 -0.4480 -0.2781
 4154SOL    HW113054   5.036   4.681   2.831 -2.6022 -1.2785 -2.4030
 4154SOL    HW213055   4.970   4.816   2.835 -0.1814 -0.0618 -1.4284
 4155SOL     OW13056   5.661   4.092   0.126 -0.1694 -0.0274  0.0885
 4155SOL    HW113057   5.681   4.056   0.212 -0.9767 -0.1979  0.2124
 4155SOL    HW213058   5.638   4.184   0.143 -0.8762 -0.2053  0.1360
 4156SOL     OW13059   6.896   5.416   1.029 -0.1619  0.0590 -0.0062
 4156SOL    HW113060   6.805   5.442   1.043 -0.6933 -1.1952 -1.0155
 4156SOL    HW213061   6.926   5.387   1.116 -1.1231 -0.6790  0.0963
 4157SOL     OW13062   6.215   1.256   0.120 -0.1261 -0.0588  0.5343
 4157SOL    HW113063   6.260   1.183   0.078  0.4439 -0.0624  1.1380
 4157SOL    HW213064   6.122   1.233   0.115 -0.0157 -0.3767 -0.1138
 4158SOL     OW13065   5.757   5.293   0.058 -0.3908  0.3378  0.0187
 4158SOL    HW113066   5.684   5.333   0.106  0.1263  1.0302  0.2514
 4158SOL    HW213067   5.817   5.264   0.127 -0.4989 -0.3284 -0.1682
 4159SOL     OW13068   5.776   4.726   1.252  0.4586 -0.0915 -0.4440
 4159SOL    HW113069   5.859   4.761   1.221  1.0804 -0.6950  0.5006
 4159SOL    HW213070   5.725   4.710   1.172  1.2345  0.3144 -1.0248
 4160SOL     OW13071   5.032   5.158   1.309  0.4145 -0.3857 -0.3744
 4160SOL    HW113072   5.054   5.248   1.286  1.6712 -1.0476 -1.9894
 4160SOL    HW213073   4.941   5.146   1.279 -0.1149  0.6005  0.7689
 4161SOL     OW13074   5.696   3.563   2.633 -0.3255 -0.2681 -0.0709
 4161SOL    HW113075   5.650   3.513   2.566  0.1277  0.4863 -0.9773
 4161SOL    HW213076   5.629   3.585   2.697 -0.7086 -1.2686 -0.1081
 4162SOL     OW13077   6.185   4.247   0.566 -0.7029  0.1539  0.6219
 4162SOL    HW113078   6.134   4.212   0.493 -1.1840  1.6058  0.2410
 4162SOL    HW213079   6.257   4.185   0.576  0.6861  1.0474 -2.5723
 4163SOL     OW13080   6.660   3.483   1.399  0.3792  1.1076 -0.3538
 4163SOL    HW113081   6.639   3.411   1.340  0.8267  1.1991 -0.6306
 4163SOL    HW213082   6.575   3.516   1.428  0.1694  0.5984 -0.3821
 4164SOL     OW13083   6.029   0.083   1.210 -0.0959  0.6531  0.0606
 4164SOL    HW113084   6.124   0.089   1.217 -0.0572  0.6540 -0.4185
 4164SOL    HW213085   6.000   0.058   1.297  0.2636  1.5762  0.4581
 4165SOL     OW13086   5.748   3.817   2.320 -0.4165 -0.4212  0.4060
 4165SOL    HW113087   5.790   3.763   2.254 -0.1101  0.8037 -0.4408
 4165SOL    HW213088   5.702   3.885   2.269 -0.6356  0.2169  1.4281
 4166SOL     OW13089   0.630   0.617   3.042 -0.1619  0.5303  0.5731
 4166SOL    HW113090   0.663   0.704   3.017  0.0647  0.0629 -0.8449
 4166SOL    HW213091   0.655   0.608   3.134  0.7134  1.5558  0.4653
 4167SOL     OW13092   5.826   4.931   3.190 -0.0640  0.1462 -0.2914
 4167SOL    HW113093   5.783   4.996   3.134 -0.8894  0.8223  1.0700
 4167SOL    HW213094   5.755   4.895   3.243  0.5326 -1.2395 -0.4046
 4168SOL     OW13095   0.263   5.147   0.414  0.3746 -0.3066 -0.5137
 4168SOL    HW113096   0.277   5.242   0.409 -2.4119  0.3214  1.1690
 4168SOL    HW213097   0.340   5.114   0.459 -0.7938  2.0660  3.8313
 4169SOL     OW13098   0.384   4.603   3.000  0.1779  0.3370  0.3149
 4169SOL    HW113099   0.292   4.582   3.013  0.2238  0.7127  1.3365
 4169SOL    HW213100   0.384   4.683   2.948 -0.0996  0.7107  0.8740
 4170SOL     OW13101   5.487   4.071   0.702  0.2974  0.2108 -0.3340
 4170SOL    HW113102   5.573   4.045   0.732 -0.7173 -1.8063  1.0604
 4170SOL    HW213103   5.488   4.167   0.705  1.1599  0.2321  3.7690
 4171SOL     OW13104   7.492   4.178   3.280 -0.4281  0.9264 -0.8730
 4171SOL    HW113105   7.492   4.249   3.217 -1.5232 -0.2689 -2.2886
 4171SOL    HW213106   7.446   4.106   3.236  1.0418 -0.8339  0.2853
 4172SOL     OW13107   6.162   5.140   3.418 -0.1975 -0.2688 -0.2798
 4172SOL    HW113108   6.202   5.054   3.430  0.3184 -0.2587 -1.7675
 4172SOL    HW213109   6.220   5.186   3.358 -0.5650  1.0738  0.3407
 4173SOL     OW13110   6.856   5.432   1.968  0.3771  0.2114  0.3484
 4173SOL    HW113111   6.815   5.473   2.044  0.5389  0.2273  0.4268
 4173SOL    HW213112   6.933   5.486   1.951  0.0484  0.5389 -0.1617
 4174SOL     OW13113   6.328   4.460   2.734  0.5937  0.1108  0.1057
 4174SOL    HW113114   6.367   4.541   2.766  0.8051 -0.8601  2.5318
 4174SOL    HW213115   6.401   4.412   2.694  0.7255  0.5588 -0.1992
 4175SOL     OW13116   0.372   0.156   0.954 -0.0309 -0.3799 -0.1057
 4175SOL    HW113117   0.324   0.105   1.019 -0.7352  0.5131  0.0925
 4175SOL    HW213118   0.460   0.164   0.990 -0.2296 -0.4754  0.4051
 4176SOL     OW13119   7.360   4.032   1.461 -0.4543  0.1924 -0.2442
 4176SOL    HW113120   7.351   3.957   1.519  1.1291 -0.2190 -0.4956
 4176SOL    HW213121   7.398   4.101   1.515 -0.2998  0.2645 -0.4431
 4177SOL     OW13122   6.448   4.713   0.469  0.1608  0.1032  0.4748
 4177SOL    HW113123   6.409   4.626   0.456 -4.1049  1.6534  1.3070
 4177SOL    HW213124   6.442   4.754   0.383  2.0295 -0.2494  0.1219
 4178SOL     OW13125   5.502   4.502   0.451 -0.1670  0.4542 -0.1889
 4178SOL    HW113126   5.484   4.413   0.419  0.3416  0.0752  0.5689
 4178SOL    HW213127   5.432   4.555   0.412 -1.9758 -0.6833  1.3226
 4179SOL     OW13128   6.405   4.456   2.200  0.0617 -0.1643 -0.0910
 4179SOL    HW113129   6.417   4.508   2.280 -3.7380 -0.2014  0.6868
 4179SOL    HW213130   6.392   4.522   2.131 -1.1705 -0.0417  0.2297
 4180SOL     OW13131   6.434   3.538   1.565  0.1644  0.2183 -0.2989
 4180SOL    HW113132   6.451   3.451   1.600  1.0622  0.4659 -0.0970
 4180SOL    HW213133   6.396   3.586   1.638 -1.4738 -0.3220 -0.7388
 4181SOL     OW13134   6.080   4.575   1.504  0.3499  0.4364 -0.5675
 4181SOL    HW113135   6.126   4.497   1.472 -0.2228 -0.0848 -0.1392
 4181SOL    HW213136   6.145   4.646   1.497 -0.3027  0.8720 -4.9182
 4182SOL     OW13137   5.388   5.379   0.888 -0.1061 -0.5744 -0.5429
 4182SOL    HW113138   5.326   5.378   0.815 -0.2514  1.8548 -0.5460
 4182SOL    HW213139   5.335   5.407   0.963  0.5746 -0.4677 -0.0922
 4183SOL     OW13140   5.620   4.158   1.004 -0.6634 -0.0019  0.3194
 4183SOL    HW113141   5.563   4.082   1.012  0.5465 -0.9063  0.5579
 4183SOL    HW213142   5.672   4.141   0.925  1.3679 -0.6558  1.7271
 4184SOL     OW13143   6.431   0.320   0.604  0.3364  0.3622  0.0113
 4184SOL    HW113144   6.461   0.239   0.644  2.2915  1.0463  0.0349
 4184SOL    HW213145   6.406   0.376   0.678 -1.4545 -0.3415 -0.0238
 4185SOL     OW13146   7.232   0.257   0.579 -0.2944  0.0367  0.2526
 4185SOL    HW113147   7.169   0.312   0.533 -1.4738 -0.0092  1.7007
 4185SOL    HW213148   7.289   0.223   0.511 -0.3009  2.0476 -0.8267
 4186SOL     OW13149   0.008   5.402   2.830 -0.4090 -0.4753  0.4851
 4186SOL    HW113150  -0.023   5.317   2.798 -0.4362 -0.8613  1.5145
 4186SOL    HW213151  -0.054   5.465   2.793 -1.7860 -1.1296  1.5986
 4187SOL     OW13152   5.496   4.812   0.134 -0.3737 -0.1845  0.4588
 4187SOL    HW113153   5.501   4.903   0.162  2.4621  0.3345 -1.3425
 4187SOL    HW213154   5.541   4.763   0.203 -0.0824  0.0587  0.4430
 4188SOL     OW13155   6.660   4.032   2.149 -0.3185  0.0518  0.4338
 4188SOL    HW113156   6.604   4.062   2.220 -0.2820 -0.3966  0.6570
 4188SOL    HW213157   6.739   3.999   2.193 -1.2673 -2.4644  0.3993
 4189SOL     OW13158   6.482   5.209   0.735  0.6376 -0.4171 -0.0866
 4189SOL    HW113159   6.495   5.201   0.830  1.9824  2.2992  0.0808
 4189SOL    HW213160   6.565   5.180   0.697  0.4958 -0.4890 -0.3421
 4190SOL     OW13161   5.653   4.056   2.162  0.1125  0.7227  0.4844
 4190SOL    HW113162   5.559   4.038   2.168  0.1489 -1.4200 -2.6914
 4190SOL    HW213163   5.666   4.081   2.071  2.8365 -1.0116  0.2936
 4191SOL     OW13164   6.142   4.637   2.056 -0.3529  0.1000 -0.4680
 4191SOL    HW113165   6.067   4.598   2.012 -1.1326 -0.4478  1.2394
 4191SOL    HW213166   6.104   4.690   2.126  0.8411 -0.8641  0.9655
 4192SOL     OW13167   5.497   3.933   1.108  0.7161  0.1438 -0.3507
 4192SOL    HW113168   5.409   3.925   1.073  0.4884  0.7054  0.0883
 4192SOL    HW213169   5.491   3.898   1.197  1.3778 -1.6483 -0.9534
 4193SOL     OW13170   6.869   4.813   1.131 -0.1688  0.0201 -0.4719
 4193SOL    HW113171   6.953   4.846   1.098  0.2109  0.7836  1.1226
 4193SOL    HW213172   6.817   4.892   1.146  0.0103 -0.1818  1.5145
 4194SOL     OW13173   6.160   3.325   0.993  0.1037 -0.4885  0.1228
 4194SOL    HW113174   6.105   3.397   0.962 -0.0613 -1.0267 -0.8965
 4194SOL    HW213175   6.227   3.367   1.046 -0.7193  0.2823  0.5845
 4195SOL     OW13176   5.562   2.598   0.603 -0.6428 -0.5078 -0.7396
 4195SOL    HW113177   5.590   2.575   0.692 -1.4203 -1.8784 -0.8167
 4195SOL    HW213178   5.644   2.609   0.554 -0.2198 -0.2409  0.0261
 4196SOL     OW13179   6.327   4.781   0.227 -0.0458  0.2362 -0.0914
 4196SOL    HW113180   6.337   4.861   0.177  0.5632  1.4146  1.8064
 4196SOL    HW213181   6.250   4.796   0.282  0.1228 -0.4423  0.3483
 4197SOL     OW13182   6.517   5.306   2.065  0.0615  0.2225  0.2582
 4197SOL    HW113183   6.429   5.269   2.072 -0.2066  0.4972 -1.3165
 4197SOL    HW213184   6.542   5.324   2.156 -0.7636 -1.5358  0.8858
 4198SOL     OW13185   6.835   3.706   0.665 -0.6540  0.0786  0.5758
 4198SOL    HW113186   6.864   3.750   0.745  1.1765 -2.5821  1.5179
 4198SOL    HW213187   6.742   3.687   0.681 -0.9965  1.8268  0.9040
 4199SOL     OW13188   4.508   4.270   0.476  0.6322 -0.0038  0.2571
 4199SOL    HW113189   4.567   4.333   0.435  0.3694  0.4232  0.5328
 4199SOL    HW213190   4.550   4.185   0.460  1.7828  0.3543  1.1939
 4200SOL     OW13191   6.097   3.781   1.082  0.1545  0.0662 -0.0362
 4200SOL    HW113192   6.024   3.843   1.088 -0.4178 -0.4078 -1.5205
 4200SOL    HW213193   6.174   3.835   1.066  0.4053  0.6817  2.7879
 4201SOL     OW13194   5.799   3.136   3.036 -0.4073 -0.0444 -0.7094
 4201SOL    HW113195   5.795   3.198   2.963  0.8084 -0.1725 -0.9136
 4201SOL    HW213196   5.853   3.180   3.102 -0.7935 -0.2748 -0.2317
 4202SOL     OW13197   5.839   0.465   2.557 -0.6393 -0.5890  0.0157
 4202SOL    HW113198   5.786   0.545   2.558 -0.5026 -0.4996  0.1743
 4202SOL    HW213199   5.789   0.402   2.609 -1.3821 -1.0225 -1.1855
 4203SOL     OW13200   6.383   5.245   1.448 -0.3650  0.4574  0.3966
 4203SOL    HW113201   6.329   5.282   1.519 -0.8974  1.1445 -0.3466
 4203SOL    HW213202   6.412   5.322   1.399 -0.5599 -0.0505 -0.5250
 4204SOL     OW13203   5.429   5.302   1.793 -0.0033 -0.3971  0.5426
 4204SOL    HW113204   5.353   5.248   1.775 -0.5123 -0.2510  2.1046
 4204SOL    HW213205   5.464   5.267   1.875  0.7410  0.4734  0.6095
 4205SOL     OW13206   5.954   3.649   3.247 -0.2914  0.7617  0.4796
 4205SOL    HW113207   5.967   3.614   3.159 -0.2153 -0.7997  1.0799
 4205SOL    HW213208   5.939   3.743   3.234 -0.4039  0.5354 -1.1909
 4206SOL     OW13209   5.885   4.570   3.114 -0.6773  0.0232  0.3794
 4206SOL    HW113210   5.921   4.655   3.088 -0.6876 -0.2024 -0.3923
 4206SOL    HW213211   5.960   4.511   3.111 -1.1520 -0.5446 -1.6642
 4207SOL     OW13212   6.054   5.323   1.635 -0.0416  0.1718  0.3356
 4207SOL    HW113213   6.143   5.346   1.663  0.4409 -0.3878 -0.6721
 4207SOL    HW213214   6.045   5.231   1.656 -0.4574  0.2716  0.6010
 4208SOL     OW13215   4.806   0.225   1.071  0.1383  0.1335 -0.1529
 4208SOL    HW113216   4.808   0.195   1.162 -1.1487 -1.5505 -0.6226
 4208SOL    HW213217   4.897   0.221   1.042  0.2012 -2.7589  0.0873
 4209SOL     OW13218   5.545   4.205   0.408 -0.7440 -0.4898 -0.0120
 4209SOL    HW113219   5.602   4.129   0.417  0.3369  0.4670  2.1338
 4209SOL    HW213220   5.457   4.172   0.424 -0.7524 -1.7976 -2.2993
 4210SOL     OW13221   6.364   4.691   2.983 -0.2434 -0.2225  0.0998
 4210SOL    HW113222   6.381   4.774   3.027  1.0731 -0.9613  1.0864
 4210SOL    HW213223   6.447   4.669   2.940 -0.9816 -0.3793 -1.3264
 4211SOL     OW13224   6.815   0.075   3.301  0.2817 -0.5218 -0.3391
 4211SOL    HW113225   6.724   0.073   3.331  0.7881  1.6603  1.5826
 4211SOL    HW213226   6.815   0.137   3.228  0.1238 -1.1362 -0.8741
 4212SOL     OW13227   4.951   0.764   1.742  0.0883  0.1539  0.2092
 4212SOL    HW113228   4.897   0.750   1.665 -0.6352  2.4314  0.2083
 4212SOL    HW213229   4.889   0.795   1.809  0.9892  0.1010  1.0952
 4213SOL     OW13230   6.381   4.605   1.912 -0.2560 -0.6825  0.1764
 4213SOL    HW113231   6.360   4.576   1.823 -2.4072  3.0593 -0.8151
 4213SOL    HW213232   6.301   4.649   1.941  2.0618  3.0579  1.6711
 4214SOL     OW13233   5.518   4.828   2.375 -0.4711  0.0026  0.0789
 4214SOL    HW113234   5.550   4.819   2.286 -1.2193 -2.9996  0.0216
 4214SOL    HW213235   5.539   4.745   2.417 -2.2062  0.4510  2.0156
 4215SOL     OW13236   6.398   3.625   0.000  0.2423 -0.6508  0.3357
 4215SOL    HW113237   6.330   3.594   0.059 -0.7259  0.0359 -0.3751
 4215SOL    HW213238   6.450   3.548  -0.021 -0.6125 -1.2868  0.5227
 4216SOL     OW13239   4.961   4.080   2.077  0.2953  0.1005 -0.1927
 4216SOL    HW113240   5.012   4.030   2.140  0.1174 -0.5707 -0.5756
 4216SOL    HW213241   5.007   4.164   2.070  0.5218  0.0462  0.5496
 4217SOL     OW13242   6.912   4.176   0.500  0.0988  0.2001 -0.6021
 4217SOL    HW113243   6.971   4.230   0.447  2.1733  0.2294  1.5775
 4217SOL    HW213244   6.962   4.096   0.517 -1.1609 -0.4856 -0.0359
 4218SOL     OW13245   5.253   4.768   0.038 -0.0477  0.6919 -0.4478
 4218SOL    HW113246   5.252   4.673   0.025 -3.1076  0.6050 -0.2909
 4218SOL    HW213247   5.342   4.787   0.066  0.5348 -2.2164  0.0426
 4219SOL     OW13248   7.235   1.848   1.740 -0.0163  0.3084 -0.0653
 4219SOL    HW113249   7.327   1.820   1.749 -0.4230 -1.0096  0.2533
 4219SOL    HW213250   7.233   1.902   1.661  1.4590  2.2814  1.1511
 4220SOL     OW13251   5.416   4.092   1.457 -0.3374  0.7341 -0.5545
 4220SOL    HW113252   5.445   4.156   1.523 -1.1639  1.0871 -0.5281
 4220SOL    HW213253   5.444   4.129   1.374  1.3318 -0.0447 -0.3817
 4221SOL     OW13254   5.904   0.564   0.968  0.3324 -0.0039 -0.1264
 4221SOL    HW113255   5.887   0.491   0.908 -1.1667  0.3233 -0.1412
 4221SOL    HW213256   5.817   0.595   0.993  0.9444  0.9202  0.9422
 4222SOL     OW13257   5.146   3.423   0.083  0.3550 -0.2567 -0.1060
 4222SOL    HW113258   5.163   3.395  -0.007 -2.0661 -1.3843 -0.3018
 4222SOL    HW213259   5.068   3.478   0.077  0.0321 -0.5112  1.3355
 4223SOL     OW13260   4.261   0.056   1.297 -0.3131 -0.2218  0.0564
 4223SOL    HW113261   4.235   0.087   1.210  1.9657  0.0510 -0.5794
 4223SOL    HW213262   4.182   0.066   1.350 -1.6074  0.1221 -1.8301
 4224SOL     OW13263   6.599   4.861   1.761 -0.4266 -0.0719  0.2043
 4224SOL    HW113264   6.578   4.941   1.713 -0.3061  0.6555  1.3132
 4224SOL    HW213265   6.691   4.845   1.742 -0.2812  0.4199  0.4588
 4225SOL     OW13266   5.818   4.801   2.550 -0.2739 -0.1637 -0.3949
 4225SOL    HW113267   5.878   4.763   2.614  1.5945 -0.3592 -2.1503
 4225SOL    HW213268   5.788   4.883   2.590  1.1024 -0.1069  0.5825
 4226SOL     OW13269   0.236   0.490   2.704 -0.1779  0.3371 -0.3769
 4226SOL    HW113270   0.308   0.475   2.765 -0.8804 -1.5836  0.0658
 4226SOL    HW213271   0.158   0.460   2.751 -1.3711  2.6643 -0.7050
 4227SOL     OW13272   6.914   0.911   0.991  0.1700  0.0805  0.3681
 4227SOL    HW113273   6.923   0.845   1.059  4.4082 -0.1184 -0.1288
 4227SOL    HW213274   6.930   0.994   1.037  1.3742  0.1022 -0.0766
 4228SOL     OW13275   5.375   4.640   1.005  0.1133  0.0840 -0.0142
 4228SOL    HW113276   5.307   4.660   1.069  0.7460  1.3448  0.2994
 4228SOL    HW213277   5.454   4.680   1.042  0.4688  0.9373 -1.6367
 4229SOL     OW13278   6.559   4.067   0.210 -0.2768 -0.2351 -0.7729
 4229SOL    HW113279   6.590   4.098   0.295  0.4013 -1.5703 -0.5050
 4229SOL    HW213280   6.626   4.005   0.181 -1.3365 -1.0908 -1.4790
 4230SOL     OW13281   5.977   3.938   0.843 -0.3267 -0.3128 -0.8328
 4230SOL    HW113282   5.991   4.027   0.875 -0.7091 -0.4868 -0.1663
 4230SOL    HW213283   6.053   3.889   0.874 -0.0273 -0.1809 -1.3528
 4231SOL     OW13284   7.388   0.355   0.785 -0.0008  0.6047  0.0012
 4231SOL    HW113285   7.349   0.324   0.704  0.5305  0.0881 -0.0586
 4231SOL    HW213286   7.455   0.290   0.807 -0.0653  0.7912  0.7965
 4232SOL     OW13287   5.109   0.107   2.495 -0.3761  0.0566 -0.3081
 4232SOL    HW113288   5.157   0.186   2.469  0.0523  0.0272  0.3727
 4232SOL    HW213289   5.177   0.044   2.520 -0.7538 -0.0735  0.4213
 4233SOL     OW13290   7.039   4.407   0.191  0.2168  0.6323  0.3217
 4233SOL    HW113291   7.113   4.349   0.211 -1.2076 -1.9173 -1.2105
 4233SOL    HW213292   7.045   4.421   0.096 -1.1160  0.5365  0.2060
 4234SOL     OW13293   6.157   4.292   1.161 -0.2441 -0.1546  0.4112
 4234SOL    HW113294   6.246   4.284   1.126  0.4250  1.1533  1.7108
 4234SOL    HW213295   6.165   4.265   1.252 -0.9074  1.0768  0.8548
 4235SOL     OW13296   5.116   1.411   0.027 -0.4107  0.0041 -0.4570
 4235SOL    HW113297   5.150   1.375  -0.055  0.8452 -1.6908  0.7349
 4235SOL    HW213298   5.157   1.497   0.034  1.9159 -1.0681 -0.1679
 4236SOL     OW13299   7.169   3.893   0.887 -0.3365 -0.3264  0.1450
 4236SOL    HW113300   7.197   3.952   0.817  0.2504  0.7646  1.2442
 4236SOL    HW213301   7.074   3.905   0.892 -0.1044  1.5813  1.1786
 4237SOL     OW13302   5.711   5.167   2.382 -0.0301  0.4280  0.0395
 4237SOL    HW113303   5.685   5.087   2.428  0.3794 -0.2045 -0.7957
 4237SOL    HW213304   5.779   5.205   2.438  1.5780 -1.1410 -0.7408
 4238SOL     OW13305   0.019   0.607   3.352  0.3703 -0.0701  0.5189
 4238SOL    HW113306  -0.054   0.579   3.407 -0.4990 -0.5187 -0.7932
 4238SOL    HW213307   0.084   0.538   3.362  0.1839 -0.1897  0.9195
 4239SOL     OW13308   5.987   4.867   1.892 -0.6758 -0.4199 -0.2839
 4239SOL    HW113309   5.993   4.792   1.951 -1.5133  0.6581  1.2610
 4239SOL    HW213310   6.078   4.892   1.876 -0.4226 -0.3593  1.1045
 4240SOL     OW13311   6.667   3.280   2.786  0.0900  0.2095 -0.0714
 4240SOL    HW113312   6.751   3.284   2.741 -0.6707  0.9231 -1.5070
 4240SOL    HW213313   6.619   3.356   2.755 -1.0139 -0.0466  0.8983
 4241SOL     OW13314   5.371   4.252   1.960  0.3911 -0.6733 -0.1574
 4241SOL    HW113315   5.443   4.265   1.899 -0.7160  3.4302 -0.8819
 4241SOL    HW213316   5.323   4.177   1.924  1.9171 -0.8559 -2.0293
 4242SOL     OW13317   0.086   0.191   0.861  0.4291  0.4519  0.8180
 4242SOL    HW113318   0.075   0.129   0.933  1.2464 -0.0444  0.5289
 4242SOL    HW213319   0.160   0.157   0.811  0.0386  0.9346 -0.1082
 4243SOL     OW13320   6.090   5.046   1.089 -0.3351 -0.7572  0.3525
 4243SOL    HW113321   6.027   5.119   1.091  0.0763 -0.3907 -0.0290
 4243SOL    HW213322   6.165   5.078   1.139  0.6929 -0.1236 -1.5111
 4244SOL     OW13323   5.639   4.421   1.764  0.2934 -0.1636  0.1195
 4244SOL    HW113324   5.622   4.486   1.832 -1.4966  1.1178 -1.4342
 4244SOL    HW213325   5.727   4.441   1.733  0.8032 -0.2360  1.4828
 4245SOL     OW13326   5.313   0.262   2.713  0.2167 -0.3691  0.6250
 4245SOL    HW113327   5.348   0.299   2.794  1.1131 -0.8823  0.4905
 4245SOL    HW213328   5.282   0.337   2.663 -0.9843 -0.0992  1.7258
 4246SOL     OW13329   6.652   4.290   1.279  0.2845 -0.3202 -0.5161
 4246SOL    HW113330   6.728   4.342   1.253  0.2612  0.3517  0.6851
 4246SOL    HW213331   6.689   4.209   1.314  0.5047  0.2236  0.5613
 4247SOL     OW13332   4.710   0.470   0.669  0.5980  0.2181  0.3852
 4247SOL    HW113333   4.659   0.469   0.750 -0.4467  0.2065 -0.2585
 4247SOL    HW213334   4.747   0.558   0.664 -0.4861  0.6768  0.1884
 4248SOL     OW13335   6.407   4.243   1.846  0.0723  0.3639  0.0368
 4248SOL    HW113336   6.388   4.337   1.838  0.6129  0.3462 -1.9796
 4248SOL    HW213337   6.322   4.201   1.836 -0.2839  0.6231  1.6602
 4249SOL     OW13338   6.220   4.372   0.790  0.0812 -0.2452  0.0326
 4249SOL    HW113339   6.238   4.466   0.782 -2.9421  0.4737  0.1474
 4249SOL    HW213340   6.215   4.341   0.700  0.6359 -0.2001 -0.0169
 4250SOL     OW13341   5.393   3.811   0.244 -0.2220  0.3913 -0.1363
 4250SOL    HW113342   5.308   3.814   0.286 -0.7446  0.2143 -1.1550
 4250SOL    HW213343   5.454   3.845   0.310 -0.9907  0.0162  0.7834
 4251SOL     OW13344   6.992   5.262   0.626  0.4911  0.0701 -0.4568
 4251SOL    HW113345   7.024   5.338   0.674 -2.2609  0.8561  0.3129
 4251SOL    HW213346   7.046   5.260   0.547  1.6355  1.9116  0.1996
 4252SOL     OW13347   6.121   3.139   3.140  0.4272  0.0238  0.1392
 4252SOL    HW113348   6.094   3.048   3.133  1.0934 -0.3473  1.8918
 4252SOL    HW213349   6.099   3.165   3.230  1.3213  1.2221  0.0476
 4253SOL     OW13350   7.115   4.890   3.534 -0.5646  0.2842 -0.2879
 4253SOL    HW113351   7.148   4.920   3.619 -0.4473  0.1078 -0.2707
 4253SOL    HW213352   7.077   4.804   3.551 -0.1497  0.0570 -0.4962
 4254SOL     OW13353   5.960   4.190   3.378 -0.0690 -0.0658 -0.3356
 4254SOL    HW113354   5.902   4.258   3.343  0.0445  0.1324 -0.1358
 4254SOL    HW213355   6.047   4.229   3.375 -0.0937  0.0655  0.4440
 4255SOL     OW13356   5.245   5.196   2.774  0.5429 -0.3637 -0.0805
 4255SOL    HW113357   5.200   5.112   2.761 -1.0854  0.6915 -1.7147
 4255SOL    HW213358   5.313   5.197   2.707  1.3808 -0.8705  0.7402
 4256SOL     OW13359   0.049   4.942   2.044  0.3732 -0.3662  0.1092
 4256SOL    HW113360   0.052   4.926   1.950 -1.6599  0.6479 -0.1985
 4256SOL    HW213361   0.031   4.857   2.083  1.3207 -0.8095 -0.3849
 4257SOL     OW13362   6.660   4.135   0.460  0.1111  0.3637  0.2445
 4257SOL    HW113363   6.660   4.040   0.454 -0.9140  0.3429  0.3677
 4257SOL    HW213364   6.752   4.160   0.452  0.4038 -0.6431  0.3543
 4258SOL     OW13365   7.211   5.075   3.021  0.0437  0.7057 -0.4695
 4258SOL    HW113366   7.184   5.113   3.105 -1.5670  1.6583 -1.3620
 4258SOL    HW213367   7.302   5.102   3.011 -0.3470  2.3826  0.0490
 4259SOL     OW13368   5.637   4.874   3.409 -0.1383 -0.1551 -0.2927
 4259SOL    HW113369   5.598   4.805   3.463  1.5506 -1.0820 -0.1698
 4259SOL    HW213370   5.583   4.951   3.426 -1.2608 -1.0994  0.6338
 4260SOL     OW13371   7.365   4.858   2.449 -0.2407 -0.6758 -0.0288
 4260SOL    HW113372   7.329   4.790   2.393 -2.6757  0.1331  0.4439
 4260SOL    HW213373   7.381   4.932   2.390  0.9056 -1.0724 -0.2591
 4261SOL     OW13374   0.004   5.355   0.724  0.1062 -0.2444  0.3345
 4261SOL    HW113375  -0.008   5.372   0.817 -0.1474 -3.1253  0.9211
 4261SOL    HW213376   0.094   5.382   0.706  0.2716  0.0430  1.5079
 4262SOL     OW13377   6.195   4.265   0.047  0.1160  0.4824 -0.4005
 4262SOL    HW113378   6.262   4.268   0.114  0.0450 -1.2558 -0.2102
 4262SOL    HW213379   6.202   4.349   0.002  1.2570  1.0070  0.7122
 4263SOL     OW13380   5.301   3.307   0.864  0.0008 -0.0658  0.4488
 4263SOL    HW113381   5.226   3.264   0.906 -0.5752  0.7546  0.2729
 4263SOL    HW213382   5.301   3.396   0.900  0.2008  0.2868 -0.4155
 4264SOL     OW13383   6.951   0.007   2.686 -0.5033  0.4371 -0.0633
 4264SOL    HW113384   7.016  -0.061   2.704 -1.1583  0.1153  1.1771
 4264SOL    HW213385   6.948   0.012   2.590  1.4690  0.6019 -0.1428
 4265SOL     OW13386   0.732   4.579   0.487  0.0695  0.1146 -0.1677
 4265SOL    HW113387   0.784   4.596   0.566 -0.1916  1.1560 -0.2034
 4265SOL    HW213388   0.772   4.634   0.420 -1.0209  0.8894 -0.2139
 4266SOL     OW13389   7.497   4.561   1.676  0.5892 -0.1999  0.6529
 4266SOL    HW113390   7.551   4.539   1.600  2.1138 -0.4099  1.7499
 4266SOL    HW213391   7.418   4.510   1.664  1.3190 -1.1857 -0.1879
 4267SOL     OW13392   5.356   0.913   1.883 -0.6266 -0.4645 -0.2855
 4267SOL    HW113393   5.441   0.917   1.927  0.4083 -0.1313 -2.2189
 4267SOL    HW213394   5.344   0.821   1.862 -1.4415 -0.7323  1.1965
 4268SOL     OW13395   7.411   0.897   1.600 -0.0089  0.2217  0.2306
 4268SOL    HW113396   7.455   0.939   1.526 -0.2776  0.2390  0.0786
 4268SOL    HW213397   7.403   0.805   1.574  0.5831  0.0767  0.5648
 4269SOL     OW13398   6.839   4.155   0.750  0.2535 -0.3411  0.2846
 4269SOL    HW113399   6.875   4.145   0.662  1.3469 -0.5719  0.7528
 4269SOL    HW213400   6.771   4.222   0.740 -1.1271 -1.8705 -1.1442
 4270SOL     OW13401   6.148   4.014   0.102 -0.5091 -0.6075  0.1273
 4270SOL    HW113402   6.168   4.106   0.084  0.7866 -1.0623 -0.9056
 4270SOL    HW213403   6.070   3.995   0.049 -0.8611 -0.0854  0.4482
 4271SOL     OW13404   7.184   0.703   0.056  0.0293  0.3184  0.1192
 4271SOL    HW113405   7.102   0.751   0.048  0.7109  1.7680  1.3855
 4271SOL    HW213406   7.252   0.769   0.043  1.0429 -0.9525 -1.4813
 4272SOL     OW13407   6.203   4.620   1.095  0.4082 -0.6047  0.0717
 4272SOL    HW113408   6.207   4.639   1.001  0.0508 -0.4359  0.0884
 4272SOL    HW213409   6.233   4.530   1.102 -0.7865 -1.0659 -0.3624
 4273SOL     OW13410   5.765   3.802   0.490  0.1192  0.1978  0.1139
 4273SOL    HW113411   5.783   3.775   0.399 -0.4577  1.0121 -0.2494
 4273SOL    HW213412   5.761   3.719   0.538 -0.7099 -0.3290 -0.8187
 4274SOL     OW13413   7.106   4.294   1.433 -0.1140  0.1416 -0.1721
 4274SOL    HW113414   7.078   4.248   1.354  0.3637 -0.9498  0.2717
 4274SOL    HW213415   7.035   4.355   1.452 -0.3200  0.2754 -1.3245
 4275SOL     OW13416   5.785   4.037   0.363 -0.5544  0.1411  0.2443
 4275SOL    HW113417   5.876   4.068   0.359 -0.4844  0.1032  1.1903
 4275SOL    HW213418   5.784   3.976   0.437 -1.3371  0.1055  0.2120
 4276SOL     OW13419   5.992   4.806   3.051  0.2328 -0.2821 -0.5183
 4276SOL    HW113420   6.065   4.852   3.092 -0.7339  1.1714 -0.3810
 4276SOL    HW213421   5.914   4.845   3.089 -0.6424 -0.8341 -1.6850
 4277SOL     OW13422   6.463   4.857   0.741 -0.5584 -0.0957 -0.3558
 4277SOL    HW113423   6.456   4.832   0.649 -1.1411  0.5194 -0.4880
 4277SOL    HW213424   6.444   4.950   0.743  0.6053  0.1466  0.2565
 4278SOL     OW13425   6.582   4.896   0.043  0.7383  0.1528  0.1014
 4278SOL    HW113426   6.597   4.810   0.082  0.1756  0.9182  2.1277
 4278SOL    HW213427   6.669   4.928   0.021  0.9658 -0.8418 -0.5024
 4279SOL     OW13428   0.269   3.554   2.630  0.0618  0.8352 -0.5803
 4279SOL    HW113429   0.232   3.538   2.717 -1.5091  0.3489 -1.2930
 4279SOL    HW213430   0.202   3.521   2.570  1.8771 -0.4915 -1.9732
 4280SOL     OW13431   5.771   4.430   2.176  0.7292 -0.3254 -0.0867
 4280SOL    HW113432   5.699   4.386   2.220  0.1344  0.3634 -0.3404
 4280SOL    HW213433   5.783   4.512   2.224 -0.6812  0.9668 -1.8166
 4281SOL     OW13434   5.116   4.609   0.365 -0.5647  1.0837 -0.3311
 4281SOL    HW113435   5.113   4.697   0.403 -1.2982  0.6034  0.7708
 4281SOL    HW213436   5.054   4.558   0.417 -1.1762  0.2400 -1.8285
 4282SOL     OW13437   5.254   5.350   2.525  0.4356 -0.1098  0.1523
 4282SOL    HW113438   5.206   5.271   2.500 -0.3086  0.1142  0.8259
 4282SOL    HW213439   5.346   5.324   2.525  0.3104 -0.5797 -1.0405
 4283SOL     OW13440   4.682   3.926   2.531  0.1958  0.1658 -0.0213
 4283SOL    HW113441   4.665   3.876   2.451  1.2966 -1.3017  0.6049
 4283SOL    HW213442   4.596   3.941   2.570 -0.1439 -1.7447  0.0383
 4284SOL     OW13443   5.108   3.987   3.112  0.7617  0.4177 -0.2535
 4284SOL    HW113444   5.030   3.944   3.149  0.7863  0.6556  0.0817
 4284SOL    HW213445   5.176   3.975   3.179  0.7477  1.0367 -0.1222
 4285SOL     OW13446   5.108   0.768   2.205  0.0006  0.1028  0.2057
 4285SOL    HW113447   5.098   0.775   2.110  0.5802 -0.4437  0.0981
 4285SOL    HW213448   5.158   0.847   2.229 -1.6867  1.1896  0.3227
 4286SOL     OW13449   6.913   3.873   2.447 -0.4489 -0.4359  0.5322
 4286SOL    HW113450   6.922   3.890   2.541 -0.9407 -2.0835  0.9063
 4286SOL    HW213451   6.997   3.899   2.410  0.2457 -1.0275  1.6398
 4287SOL     OW13452   6.862   5.001   2.794  0.4071  0.1123  0.2368
 4287SOL    HW113453   6.821   5.062   2.855  3.6296  2.6483  0.1281
 4287SOL    HW213454   6.840   5.036   2.707 -0.8405 -1.1645 -0.0011
 4288SOL     OW13455   0.387   4.037   1.785 -0.7348  0.3633  0.3647
 4288SOL    HW113456   0.474   4.023   1.822  0.0715  0.4210 -1.4258
 4288SOL    HW213457   0.350   3.949   1.776  0.0117  0.1552 -0.8432
 4289SOL     OW13458   6.486   4.606   2.404  0.2347  0.5090 -0.0311
 4289SOL    HW113459   6.532   4.623   2.486 -0.7508  1.0598  0.4177
 4289SOL    HW213460   6.404   4.655   2.411 -1.3505 -1.9657  0.0225
 4290SOL     OW13461   6.757   4.855   2.097 -0.2674  0.1025  0.0997
 4290SOL    HW113462   6.767   4.936   2.147 -1.9114  0.8278 -0.6933
 4290SOL    HW213463   6.680   4.869   2.042 -1.0867 -2.2902  0.5066
 4291SOL     OW13464   5.560   5.369   0.242  0.4101  0.5722  0.2961
 4291SOL    HW113465   5.536   5.363   0.334 -1.5332  1.1721 -0.1144
 4291SOL    HW213466   5.496   5.313   0.197  2.3304 -1.0314 -0.5801
 4292SOL     OW13467   0.188   5.229   3.210  0.4310 -0.2608 -0.0317
 4292SOL    HW113468   0.125   5.296   3.183 -0.9385 -1.8760 -1.0153
 4292SOL    HW213469   0.191   5.236   3.306 -1.0633  0.0075  0.0075
 4293SOL     OW13470   4.431   3.246   0.044  0.0451 -0.3791 -0.2888
 4293SOL    HW113471   4.504   3.306   0.059  0.1515 -0.1576 -1.6006
 4293SOL    HW213472   4.356   3.289   0.085  0.2902  0.2703 -0.5010
 4294SOL     OW13473   7.170   4.077   1.711 -0.5032  0.0926 -0.0675
 4294SOL    HW113474   7.103   4.069   1.643  0.7190 -0.5782 -1.2337
 4294SOL    HW213475   7.121   4.094   1.792 -1.9182  5.0325 -1.5970
 4295SOL     OW13476   5.908   0.385   2.930  0.2838 -0.5083 -0.4571
 4295SOL    HW113477   5.863   0.377   2.846  0.0976  0.0643 -0.4140
 4295SOL    HW213478   5.858   0.451   2.979  1.4157  0.4827 -0.5864
 4296SOL     OW13479   6.001   5.328   2.361 -0.1855  0.0236  0.5113
 4296SOL    HW113480   5.964   5.336   2.449 -1.8891  1.2058 -0.2582
 4296SOL    HW213481   6.090   5.363   2.369 -0.8397  1.5849  1.4833
 4297SOL     OW13482   6.829   4.707   0.791 -0.6596 -0.0716  0.4028
 4297SOL    HW113483   6.793   4.658   0.866 -0.9014 -0.4735  0.0268
 4297SOL    HW213484   6.860   4.639   0.731  1.1662  0.2384  0.9093
 4298SOL     OW13485   7.419   4.177   1.705  0.1752 -0.2944  0.1193
 4298SOL    HW113486   7.420   4.270   1.680 -0.4435 -0.5947 -1.1011
 4298SOL    HW213487   7.327   4.155   1.711  0.2789 -1.2781 -1.4205
 4299SOL     OW13488   5.563   0.417   2.348  0.0129  0.0435  0.5605
 4299SOL    HW113489   5.513   0.344   2.386  0.7234 -0.0162  1.4222
 4299SOL    HW213490   5.497   0.481   2.323 -0.4630  0.7386  3.2894
 4300SOL     OW13491   5.792   0.916   3.338 -0.2148  0.3349  0.6364
 4300SOL    HW113492   5.832   0.876   3.415  0.1969 -0.8168 -0.1410
 4300SOL    HW213493   5.705   0.878   3.334 -0.6251  1.1924  1.1031
 4301SOL     OW13494   6.829   4.207   1.026 -0.7265 -0.6954 -0.2951
 4301SOL    HW113495   6.809   4.298   1.005  0.8515 -0.1376  0.4575
 4301SOL    HW213496   6.844   4.165   0.941  2.6895  0.8164 -0.5961
 4302SOL     OW13497   0.273   4.566   2.391  0.0121 -0.6857  0.3157
 4302SOL    HW113498   0.267   4.503   2.319  1.3377 -0.7089  0.2020
 4302SOL    HW213499   0.348   4.536   2.443  1.1989  1.2176 -0.1875
 4303SOL     OW13500   5.856   3.703   2.104 -0.1335  0.1839  0.4308
 4303SOL    HW113501   5.892   3.721   2.017  1.3058  2.4666  1.4171
 4303SOL    HW213502   5.768   3.669   2.087  0.7245 -1.1211 -1.9326
 4304SOL     OW13503   6.897   0.920   1.674 -0.8798 -0.0792  0.1551
 4304SOL    HW113504   6.963   0.851   1.669 -2.3063 -1.5658  0.7980
 4304SOL    HW213505   6.947   1.001   1.680  0.8695 -0.9455 -1.5295
 4305SOL     OW13506   6.959   5.431   3.496 -0.4750 -0.3385 -0.0357
 4305SOL    HW113507   6.907   5.465   3.423 -0.0794  0.4143  0.0208
 4305SOL    HW213508   6.900   5.433   3.571 -0.4093  0.3958  0.0019
 4306SOL     OW13509   4.571   3.760   2.313 -0.1871  0.4610 -0.1491
 4306SOL    HW113510   4.628   3.764   2.236  0.7730 -0.7851  0.4507
 4306SOL    HW213511   4.483   3.747   2.277  0.2492 -0.1116 -1.0553
 4307SOL     OW13512   3.964   5.060   2.937 -0.1731 -0.1680  0.6147
 4307SOL    HW113513   4.032   5.037   3.000  0.4487 -0.3881 -0.1136
 4307SOL    HW213514   3.956   5.155   2.945  0.1026 -0.1601  0.8261
 4308SOL     OW13515   6.490   4.866   2.038  0.3705 -0.4963 -0.3861
 4308SOL    HW113516   6.431   4.930   1.999  1.0811  0.0504 -0.5852
 4308SOL    HW213517   6.486   4.791   1.979  0.3616 -0.2140 -0.7499
 4309SOL     OW13518   7.122   5.345   3.229 -0.3787  0.1278  0.2112
 4309SOL    HW113519   7.044   5.365   3.279 -0.6341  1.4327 -0.6331
 4309SOL    HW213520   7.145   5.255   3.253 -2.0069 -0.2052  0.6191
 4310SOL     OW13521   5.461   4.516   2.389  0.2415 -0.1392 -0.1035
 4310SOL    HW113522   5.408   4.504   2.467  0.7361  0.5805  0.3526
 4310SOL    HW213523   5.520   4.440   2.388  1.1380  0.5116  0.9707
 4311SOL     OW13524   7.072   5.214   0.912  0.4760 -0.2445  0.4516
 4311SOL    HW113525   7.068   5.202   0.817  0.9762 -1.9472  0.6181
 4311SOL    HW213526   7.003   5.278   0.931 -0.2534 -0.5732 -0.9445
 4312SOL     OW13527   6.155   5.397   1.944 -0.1221 -0.5723 -0.0593
 4312SOL    HW113528   6.127   5.479   1.984  1.1313 -0.4113  0.5575
 4312SOL    HW213529   6.163   5.336   2.017 -0.3719 -1.0490 -0.4216
 4313SOL     OW13530   6.174   4.095   2.671  0.2297 -0.0031 -0.4563
 4313SOL    HW113531   6.242   4.098   2.604  0.4488  0.3260 -0.2212
 4313SOL    HW213532   6.093   4.114   2.624  0.5065  1.1919 -0.4643
 4314SOL     OW13533   6.657   0.024   0.973  0.0983 -0.3026 -0.5638
 4314SOL    HW113534   6.585   0.087   0.976 -0.1003 -0.5405 -0.2602
 4314SOL    HW213535   6.701   0.042   0.890 -0.5070 -0.3641 -0.9027
 4315SOL     OW13536   5.231   4.926   2.704  0.0986  0.2820 -0.2759
 4315SOL    HW113537   5.297   4.873   2.660 -1.5302 -0.6697 -1.6882
 4315SOL    HW213538   5.166   4.863   2.736  0.1860  1.1269  1.7422
 4316SOL     OW13539   6.523   4.967   2.685 -0.1615  0.2742 -0.3030
 4316SOL    HW113540   6.491   4.912   2.613 -1.0464  0.2143  0.1138
 4316SOL    HW213541   6.495   4.921   2.764 -0.6460  1.1518  0.0557
 4317SOL     OW13542   4.644   4.830   2.702  0.2279 -0.1453  0.1167
 4317SOL    HW113543   4.581   4.874   2.759 -0.7048 -0.2862 -0.7807
 4317SOL    HW213544   4.729   4.858   2.736 -0.2832 -0.3845  1.6906
 4318SOL     OW13545   5.350   5.173   0.130  0.2409 -0.4524  0.2714
 4318SOL    HW113546   5.382   5.113   0.062 -2.3732 -1.2701 -0.3556
 4318SOL    HW213547   5.368   5.127   0.213  3.9203  0.7787  0.3396
 4319SOL     OW13548   6.895   3.899   0.862  0.1258  0.4501  0.0396
 4319SOL    HW113549   6.816   3.853   0.890  0.8980 -2.0049 -1.5389
 4319SOL    HW213550   6.864   3.986   0.836 -1.6118  0.4101  1.7375
 4320SOL     OW13551   0.269   5.374   2.122  0.2533  0.0213 -0.4391
 4320SOL    HW113552   0.265   5.361   2.027 -0.1343  0.6084 -0.5091
 4320SOL    HW213553   0.270   5.286   2.158 -0.2487 -0.2095 -0.9679
 4321SOL     OW13554   4.736   3.494   3.391  0.5432 -0.0715  0.4190
 4321SOL    HW113555   4.661   3.553   3.394  1.5641  1.2722  0.5908
 4321SOL    HW213556   4.761   3.492   3.298  0.9047  0.2953  0.5063
 4322SOL     OW13557   6.636   0.039   2.990 -0.2351 -0.8622  0.1464
 4322SOL    HW113558   6.707   0.096   3.016 -0.1191 -1.5306  1.3990
 4322SOL    HW213559   6.574   0.043   3.063 -2.0420  0.5481 -1.3606
 4323SOL     OW13560   7.390   5.314   2.362 -0.0625  0.0915  0.0089
 4323SOL    HW113561   7.456   5.304   2.430 -0.2234 -1.2751 -0.0081
 4323SOL    HW213562   7.396   5.233   2.310 -1.8001 -0.1279  0.0769
 4324SOL     OW13563   0.001   0.375   0.180 -0.5796  0.1383 -0.3024
 4324SOL    HW113564  -0.080   0.356   0.228 -0.4312 -1.4413 -0.6319
 4324SOL    HW213565  -0.029   0.400   0.093 -0.7249 -0.0761 -0.3143
 4325SOL     OW13566   5.591   0.648   2.072 -0.2911 -0.3079  0.3905
 4325SOL    HW113567   5.505   0.614   2.098 -0.5809  1.5729  2.0775
 4325SOL    HW213568   5.650   0.620   2.141  0.4006 -1.1560 -0.5101
 4326SOL     OW13569   6.712   5.191   0.153 -0.0004 -0.1022  0.2950
 4326SOL    HW113570   6.794   5.141   0.157 -0.5975 -1.1051  0.3018
 4326SOL    HW213571   6.666   5.167   0.233  0.6302  2.1798  1.4474
 4327SOL     OW13572   4.375   1.965   0.533 -0.2486 -0.2525  0.3216
 4327SOL    HW113573   4.402   1.918   0.454 -1.8229  0.8964 -0.9666
 4327SOL    HW213574   4.294   1.921   0.560 -1.4635  1.2794 -0.6091
 4328SOL     OW13575   6.456   3.978   1.139  0.4295  0.1620  0.2975
 4328SOL    HW113576   6.535   3.961   1.088 -0.4548 -0.4540 -0.9507
 4328SOL    HW213577   6.385   3.969   1.075 -0.5325  2.7122  0.9142
 4329SOL     OW13578   6.746   3.730   3.267  0.2592 -0.7106 -0.2129
 4329SOL    HW113579   6.831   3.756   3.301 -0.0030 -1.7352  1.3279
 4329SOL    HW213580   6.765   3.693   3.180  1.0971  0.8745 -0.7326
 4330SOL     OW13581   5.660   0.079   2.691  0.6912  0.2036  0.4952
 4330SOL    HW113582   5.617   0.050   2.611  0.3658  1.7801  0.0826
 4330SOL    HW213583   5.617   0.029   2.760 -0.4295  0.3050 -0.1083
 4331SOL     OW13584   5.687   5.071   2.679 -0.2169 -0.2617 -0.1162
 4331SOL    HW113585   5.681   5.041   2.770 -1.8509  0.6067  0.1024
 4331SOL    HW213586   5.741   5.150   2.683 -1.4385  0.5759  0.3459
 4332SOL     OW13587   6.545   5.016   0.287  0.1599 -0.4487 -0.0823
 4332SOL    HW113588   6.625   4.996   0.335  1.0054  2.5146 -0.0447
 4332SOL    HW213589   6.561   4.983   0.199  2.9707  2.8553 -1.0320
 4333SOL     OW13590   6.422   4.553   0.085 -0.1703 -0.0918 -0.2324
 4333SOL    HW113591   6.403   4.626   0.143  0.8204  0.5024 -0.6230
 4333SOL    HW213592   6.378   4.575   0.003  0.1782  0.1043 -0.3694
 4334SOL     OW13593   7.322   0.612   2.840  0.4318  0.4872  0.1733
 4334SOL    HW113594   7.299   0.693   2.886 -0.5106 -0.0357  0.6327
 4334SOL    HW213595   7.347   0.641   2.752 -0.1112  1.2593  0.2646
 4335SOL     OW13596   6.367   4.743   1.603  0.0817 -0.0135 -0.0668
 4335SOL    HW113597   6.428   4.775   1.669  0.5771  0.3959 -0.7155
 4335SOL    HW213598   6.336   4.822   1.559  0.2717 -0.3343 -0.7740
 4336SOL     OW13599   5.241   0.300   2.257  0.1718 -0.4776  1.0602
 4336SOL    HW113600   5.199   0.228   2.210  0.9242 -0.7698  0.8044
 4336SOL    HW213601   5.328   0.266   2.279  1.8907  1.4121 -2.0016
 4337SOL     OW13602   7.312   4.679   0.866  0.1368  0.0951 -0.1207
 4337SOL    HW113603   7.282   4.614   0.929 -0.5088  0.6403  0.1460
 4337SOL    HW213604   7.391   4.641   0.828  0.6299 -0.1854  1.1167
 4338SOL     OW13605   5.370   3.969   3.257  0.2626 -0.2674  0.5227
 4338SOL    HW113606   5.392   3.938   3.345  2.1566  0.3662  0.3054
 4338SOL    HW213607   5.420   4.050   3.246 -2.1981  1.3083 -0.0767
 4339SOL     OW13608   7.196   4.250   0.775  0.1162  0.2220  0.5316
 4339SOL    HW113609   7.144   4.227   0.698 -1.4384  2.3067  0.8574
 4339SOL    HW213610   7.160   4.196   0.845  1.4038 -1.5376 -0.0837
 4340SOL     OW13611   6.699   5.196   2.628  0.3025 -0.2573  0.6923
 4340SOL    HW113612   6.670   5.273   2.676 -1.7642 -0.3897 -0.2319
 4340SOL    HW213613   6.628   5.133   2.638 -0.5733 -0.0840 -2.9478
 4341SOL     OW13614   0.838   3.653   0.888 -0.0666  0.4760 -0.4870
 4341SOL    HW113615   0.931   3.647   0.867 -0.2248 -1.0448 -0.8782
 4341SOL    HW213616   0.830   3.735   0.936  1.5539  0.4398 -0.0733
 4342SOL     OW13617   5.992   4.798   2.231  0.5156  0.1753 -0.3300
 4342SOL    HW113618   6.024   4.831   2.315  0.1980 -0.2374 -0.0446
 4342SOL    HW213619   5.916   4.744   2.254  1.1035 -0.8627 -0.7799
 4343SOL     OW13620   6.950   4.101   1.230 -0.1383 -0.7020 -0.0471
 4343SOL    HW113621   6.891   4.065   1.296 -0.6603 -0.9630 -0.6531
 4343SOL    HW213622   6.893   4.133   1.161  0.4117 -0.5567 -0.4453
 4344SOL     OW13623   6.383   3.856   3.366 -0.4064  0.3117  0.7987
 4344SOL    HW113624   6.476   3.841   3.384 -0.3402 -2.0522 -1.1553
 4344SOL    HW213625   6.338   3.791   3.420 -0.7906  0.0716  0.1890
 4345SOL     OW13626   6.176   3.322   1.617  0.3177  0.3876  0.5360
 4345SOL    HW113627   6.160   3.298   1.525 -1.2298 -0.8296  1.0673
 4345SOL    HW213628   6.267   3.351   1.619  0.5953 -0.2176 -1.2642
 4346SOL     OW13629   5.891   4.087   1.601 -0.3365 -0.3563  0.2245
 4346SOL    HW113630   5.984   4.078   1.583 -0.6583 -2.4880 -0.7935
 4346SOL    HW213631   5.857   4.142   1.530 -0.0382 -0.6128 -0.1192
 4347SOL     OW13632   5.811   4.265   1.400  0.2824  0.2702 -0.1567
 4347SOL    HW113633   5.739   4.325   1.420 -0.9080 -1.5499  1.3224
 4347SOL    HW213634   5.854   4.304   1.324 -1.1148  2.3762  0.0431
 4348SOL     OW13635   0.023   1.282   1.821  0.7298  0.1170  0.7814
 4348SOL    HW113636  -0.050   1.336   1.793 -0.0196 -0.8849  0.7479
 4348SOL    HW213637  -0.015   1.195   1.833  2.0880 -0.6179 -0.0607
 4349SOL     OW13638   6.415   3.200   3.215 -0.8184  0.1283  0.0493
 4349SOL    HW113639   6.479   3.268   3.190  0.1723 -0.9160 -0.3616
 4349SOL    HW213640   6.330   3.243   3.207 -0.1959  1.4637  0.2694
 4350SOL     OW13641   0.675   5.180   1.562 -0.3817 -0.6386 -0.4759
 4350SOL    HW113642   0.601   5.132   1.523 -1.2888 -1.1115  1.6742
 4350SOL    HW213643   0.638   5.220   1.641  1.3009  0.4394 -0.1929
 4351SOL     OW13644   6.611   5.355   2.335 -0.0617 -0.5069 -0.2908
 4351SOL    HW113645   6.694   5.324   2.373  0.0982  0.4806  0.1871
 4351SOL    HW213646   6.553   5.366   2.410  0.0592  0.8598 -0.3748
 4352SOL     OW13647   0.291   5.388   2.639 -0.2165 -0.4863  0.4709
 4352SOL    HW113648   0.313   5.375   2.731 -1.3713 -0.4541  0.7702
 4352SOL    HW213649   0.370   5.363   2.591  0.3797 -0.5452  1.4639
 4353SOL     OW13650   6.373   3.889   0.261  0.0198  0.1567 -0.7778
 4353SOL    HW113651   6.432   3.963   0.245 -1.2333  1.6958  1.2976
 4353SOL    HW213652   6.297   3.907   0.206 -0.9459  1.3199  0.8420
 4354SOL     OW13653   5.602   3.936   2.849 -0.4615 -0.0786  0.1509
 4354SOL    HW113654   5.510   3.921   2.869 -0.3385 -1.2340 -0.0808
 4354SOL    HW213655   5.650   3.881   2.912  0.0785  0.6248  0.3710
 4355SOL     OW13656   7.198   5.072   3.306 -0.3579  0.4524  0.1570
 4355SOL    HW113657   7.157   5.039   3.386 -0.5002  1.0957  0.3623
 4355SOL    HW213658   7.290   5.049   3.314 -0.7123 -1.3303 -0.4728
 4356SOL     OW13659   5.585   4.606   1.958 -0.2805 -0.0810 -0.3674
 4356SOL    HW113660   5.520   4.551   2.002  0.3401 -0.9738 -0.5538
 4356SOL    HW213661   5.606   4.674   2.021 -1.5814  0.3723 -0.3962
 4357SOL     OW13662   0.206   4.431   3.288  0.1387 -0.3687 -0.2832
 4357SOL    HW113663   0.175   4.476   3.209  2.1240  0.4563 -0.6646
 4357SOL    HW213664   0.165   4.345   3.284 -0.8242  0.1118 -1.5378
 4358SOL     OW13665   5.906   3.750   2.571  0.0526  0.1731  0.5583
 4358SOL    HW113666   5.848   3.678   2.593  1.0387 -0.6912  0.4140
 4358SOL    HW213667   5.870   3.786   2.490 -0.0802 -0.5764  0.2796
 4359SOL     OW13668   7.306   0.832   0.320 -0.2874  0.1359  0.2897
 4359SOL    HW113669   7.292   0.751   0.369  0.8101 -1.5897 -2.0217
 4359SOL    HW213670   7.227   0.841   0.267 -0.7902  1.1106  1.1762
 4360SOL     OW13671   5.334   3.378   2.475 -0.2134  0.1504 -0.1157
 4360SOL    HW113672   5.287   3.446   2.426  0.0622  0.7389  0.4131
 4360SOL    HW213673   5.426   3.393   2.454 -0.1849 -0.3738 -0.3737
 4361SOL     OW13674   6.271   5.428   2.345  0.1667  0.4702  0.0128
 4361SOL    HW113675   6.320   5.502   2.309  1.1645  0.6453  1.6181
 4361SOL    HW213676   6.310   5.413   2.431  0.5538 -2.4472 -0.5587
 4362SOL     OW13677   6.965   5.441   2.405 -0.0018 -0.1232  0.5852
 4362SOL    HW113678   6.996   5.520   2.361 -0.1530  0.0644  0.8158
 4362SOL    HW213679   7.043   5.386   2.414 -0.2517 -0.9493 -1.5256
 4363SOL     OW13680   6.640   4.291   3.117  0.4021  0.2055 -0.4369
 4363SOL    HW113681   6.545   4.299   3.123  0.4176 -0.4755  1.4767
 4363SOL    HW213682   6.673   4.341   3.192  1.5269 -0.0180 -0.7631
 4364SOL     OW13683   5.265   0.581   3.454 -1.0710  0.5602  0.1796
 4364SOL    HW113684   5.196   0.590   3.520 -0.0118 -2.8135  2.0005
 4364SOL    HW213685   5.218   0.564   3.373 -2.6654 -4.1450  1.7740
 4365SOL     OW13686   5.216   4.507   0.005  0.3525  0.3470  0.5403
 4365SOL    HW113687   5.243   4.446  -0.064  0.0086  1.2479 -0.4266
 4365SOL    HW213688   5.251   4.470   0.085  0.4081 -0.9603 -0.0604
 4366SOL     OW13689   5.171   4.852   3.331  0.3281 -0.0725 -0.2979
 4366SOL    HW113690   5.248   4.901   3.304  1.3574 -1.2246  0.4401
 4366SOL    HW213691   5.186   4.832   3.423 -0.7013 -0.6236 -0.2307
 4367SOL     OW13692   7.199   5.200   1.371 -0.4440 -0.1701 -0.1471
 4367SOL    HW113693   7.281   5.157   1.348 -0.5089  0.6103 -2.0216
 4367SOL    HW213694   7.173   5.160   1.454  0.9026 -1.7168 -0.4231
 4368SOL     OW13695   7.318   0.506   3.123  0.4139 -0.7506  0.2894
 4368SOL    HW113696   7.289   0.525   3.034 -0.6202 -1.0717  0.5494
 4368SOL    HW213697   7.277   0.574   3.177  1.5063 -0.1991  0.4687
 4369SOL     OW13698   7.277   4.405   1.626 -0.3004 -0.3465  0.0249
 4369SOL    HW113699   7.245   4.361   1.547 -0.0245 -1.4360  0.4930
 4369SOL    HW213700   7.204   4.397   1.689 -0.7762  1.1034 -0.3114
 4370SOL     OW13701   5.175   0.185   3.431 -0.7595  0.0006 -0.0384
 4370SOL    HW113702   5.143   0.247   3.366 -0.8670  0.3218  0.3153
 4370SOL    HW213703   5.220   0.118   3.380  0.4156  0.9977 -0.3496
 4371SOL     OW13704   7.067   3.048   3.034 -0.9425 -0.1063 -0.3377
 4371SOL    HW113705   7.021   3.129   3.055 -0.6564 -0.4394  1.7480
 4371SOL    HW213706   7.156   3.077   3.010 -0.9986  0.2300 -0.1436
 4372SOL     OW13707   6.962   5.067   0.237  0.8524  0.2910  0.5436
 4372SOL    HW113708   6.920   5.040   0.319  0.3092  1.4685  0.6696
 4372SOL    HW213709   7.052   5.035   0.245  0.6998  0.0529  1.4265
 4373SOL     OW13710   6.447   0.000   2.579 -0.0680 -0.3311 -0.6753
 4373SOL    HW113711   6.509  -0.022   2.648  0.8598  0.2353 -1.3096
 4373SOL    HW213712   6.451   0.096   2.572 -1.4736 -0.2249 -0.3104
 4374SOL     OW13713   6.643   4.497   1.898  0.2511  0.5863  0.1012
 4374SOL    HW113714   6.597   4.414   1.912  0.3560  0.4816 -0.1847
 4374SOL    HW213715   6.580   4.564   1.927 -0.5024  0.5059 -1.2754
 4375SOL     OW13716   6.920   4.197   1.867  0.0384  0.2253 -0.0997
 4375SOL    HW113717   6.946   4.143   1.941 -0.7436  2.1011  1.6327
 4375SOL    HW213718   6.824   4.195   1.868 -0.0412 -1.1833 -2.2622
 4376SOL     OW13719   4.737   3.333   0.036 -0.1947  0.5611 -0.2093
 4376SOL    HW113720   4.780   3.254   0.001  2.4736  0.8684  1.9883
 4376SOL    HW213721   4.725   3.389  -0.040  0.3055 -0.9180 -1.4430
 4377SOL     OW13722   5.206   0.993   2.286  0.0727  0.2547 -0.2733
 4377SOL    HW113723   5.278   1.045   2.251  0.0957  0.4514  0.0572
 4377SOL    HW213724   5.204   1.015   2.380  0.5886 -0.9395  0.0336
 4378SOL     OW13725   4.558   4.594   3.422  0.1978 -0.9885  0.1211
 4378SOL    HW113726   4.621   4.665   3.411 -2.3803  1.6859  1.2359
 4378SOL    HW213727   4.612   4.514   3.424  3.1815  0.7592 -2.1098
 4379SOL     OW13728   5.364   5.396   2.188 -0.1105 -1.0434 -0.3726
 4379SOL    HW113729   5.324   5.316   2.221  0.1081 -0.8959  0.2518
 4379SOL    HW213730   5.293   5.460   2.186 -0.4605 -1.4310 -1.5578
 4380SOL     OW13731   0.261   2.065   1.803  0.3693 -0.7157  0.3410
 4380SOL    HW113732   0.317   2.073   1.726  0.6637 -0.0414  0.6206
 4380SOL    HW213733   0.283   1.979   1.840  0.3269 -0.9820 -0.2417
 4381SOL     OW13734   6.221   4.546   3.179  0.9261  0.0162  0.0823
 4381SOL    HW113735   6.276   4.476   3.213  1.1963  0.4376  0.5283
 4381SOL    HW213736   6.278   4.595   3.120  0.9756  0.3348  0.3912
 4382SOL     OW13737   0.592   4.358   0.497 -0.0714 -0.3579  0.5607
 4382SOL    HW113738   0.557   4.345   0.408  1.8009 -0.3600 -0.2188
 4382SOL    HW213739   0.630   4.445   0.495  1.7749 -1.1158  0.6939
 4383SOL     OW13740   6.992   4.487   2.567  0.0527  0.3269 -0.2130
 4383SOL    HW113741   6.945   4.418   2.520 -0.7972  1.3511 -0.9050
 4383SOL    HW213742   7.072   4.502   2.517  0.7641 -0.8482  0.5139
 4384SOL     OW13743   7.493   3.710   0.378 -0.3113  0.4350 -0.8403
 4384SOL    HW113744   7.523   3.650   0.446 -2.5231 -0.2890 -0.4192
 4384SOL    HW213745   7.572   3.756   0.351  0.6133  1.1128  2.5329
 4385SOL     OW13746   6.667   0.541   0.789  0.9778  0.0385  0.5069
 4385SOL    HW113747   6.617   0.468   0.825  0.9057  0.2635  0.8746
 4385SOL    HW213748   6.632   0.618   0.834 -0.2889  0.5561 -1.2456
 4386SOL     OW13749   5.895   4.213   2.955  0.5209  0.4500 -0.2548
 4386SOL    HW113750   5.936   4.287   2.911  0.7703 -0.0143 -0.8217
 4386SOL    HW213751   5.958   4.141   2.944  0.8593  0.4625  1.3662
 4387SOL     OW13752   5.530   4.378   0.716 -0.4187 -0.5784 -0.0211
 4387SOL    HW113753   5.523   4.433   0.638 -0.1087  2.8830  2.2022
 4387SOL    HW213754   5.442   4.378   0.753 -0.0891 -0.3678  0.7654
 4388SOL     OW13755   6.537   3.388   3.459 -0.6719 -0.3577  0.3118
 4388SOL    HW113756   6.547   3.363   3.367 -1.4421 -3.7431  0.9960
 4388SOL    HW213757   6.626   3.393   3.493 -0.4218 -2.2904  0.0443
 4389SOL     OW13758   4.116   0.837   1.282 -0.2813 -0.0918 -0.3493
 4389SOL    HW113759   4.033   0.883   1.291 -1.2833 -1.8727 -0.2339
 4389SOL    HW213760   4.138   0.847   1.189 -0.4527  0.6413 -0.3187
 4390SOL     OW13761   5.537   5.428   2.910 -0.0504 -0.2227  0.0981
 4390SOL    HW113762   5.489   5.500   2.949 -0.2447  1.0484 -2.3022
 4390SOL    HW213763   5.512   5.351   2.962 -1.0374  1.1480  1.7537
 4391SOL     OW13764   6.547   4.033   2.663 -0.3424 -0.0073  0.0866
 4391SOL    HW113765   6.472   4.020   2.604 -1.5157 -1.4970  1.7935
 4391SOL    HW213766   6.515   4.005   2.749  1.7712  0.6531  1.1501
 4392SOL     OW13767   5.899   4.821   3.448  0.4729 -0.2930  0.5457
 4392SOL    HW113768   5.927   4.892   3.505  0.3511  0.7498 -0.6634
 4392SOL    HW213769   5.804   4.834   3.438  0.4217 -0.7163  0.4426
 4393SOL     OW13770   0.547   5.143   2.281 -0.3732 -0.2675  0.0288
 4393SOL    HW113771   0.471   5.159   2.338 -0.5209 -0.6674 -0.0522
 4393SOL    HW213772   0.583   5.230   2.265 -2.4321  0.2917 -2.1875
 4394SOL     OW13773   0.590   4.832   0.180 -0.0069  0.3553 -0.5065
 4394SOL    HW113774   0.673   4.878   0.162  0.7943 -0.8750 -0.0423
 4394SOL    HW213775   0.542   4.838   0.098  0.0903  1.9460 -0.4948
 4395SOL     OW13776   6.125   4.897   0.384 -0.2620 -0.2542 -0.1063
 4395SOL    HW113777   6.054   4.954   0.414  1.2116  1.7107 -0.1400
 4395SOL    HW213778   6.203   4.952   0.389  1.0141 -1.8298 -1.5910
 4396SOL     OW13779   6.599   4.274   2.549  0.3860  0.2243  0.3156
 4396SOL    HW113780   6.618   4.183   2.574  2.1864  0.5553  0.3075
 4396SOL    HW213781   6.528   4.267   2.485 -0.0874 -1.1017  0.9469
 4397SOL     OW13782   4.810   4.707   3.413  0.4149  0.4617 -0.1636
 4397SOL    HW113783   4.841   4.732   3.501 -0.8473 -0.1277  0.4790
 4397SOL    HW213784   4.872   4.641   3.383  1.2233  1.1282  0.0075
 4398SOL     OW13785   5.506   5.373   3.369 -0.1353 -0.1182  0.3051
 4398SOL    HW113786   5.587   5.419   3.387  0.3334 -1.0119  0.5276
 4398SOL    HW213787   5.439   5.442   3.368  0.5482  0.5645  0.5692
 4399SOL     OW13788   6.142   0.050   3.217 -0.4486  0.2303 -0.5185
 4399SOL    HW113789   6.139  -0.017   3.286 -1.4832 -0.2541 -1.0096
 4399SOL    HW213790   6.157   0.000   3.136  0.4880  0.7669 -0.6891
 4400SOL     OW13791   0.251   4.802   3.247  0.2593 -0.3812  0.3588
 4400SOL    HW113792   0.273   4.881   3.296  1.1039  0.1286 -0.8149
 4400SOL    HW213793   0.297   4.732   3.293 -0.0510 -0.1189  1.0814
 4401SOL     OW13794   7.263   0.031   3.042 -0.4494 -0.7739 -0.2018
 4401SOL    HW113795   7.203  -0.021   3.095 -0.9279 -0.1451 -0.1152
 4401SOL    HW213796   7.208   0.071   2.974 -0.0882 -0.4077 -0.2863
 4402SOL     OW13797   7.165   0.504   3.408 -0.2201  0.1166  0.5248
 4402SOL    HW113798   7.166   0.546   3.494  1.1778 -0.5964  0.8882
 4402SOL    HW213799   7.197   0.571   3.349  0.3746  0.1047  0.8287
 4403SOL     OW13800   5.487   0.435   0.696 -0.8440 -0.0497  0.5570
 4403SOL    HW113801   5.577   0.426   0.728 -0.0504  0.3014 -1.4427
 4403SOL    HW213802   5.490   0.400   0.607 -2.8180 -0.4512  0.6082
 4404SOL     OW13803   0.539   3.950   0.424  0.3031 -0.6618  0.4906
 4404SOL    HW113804   0.500   3.874   0.468  1.2433 -1.3268  0.2139
 4404SOL    HW213805   0.519   4.024   0.481  0.8617 -1.3902  1.6595
 4405SOL     OW13806   7.103   5.030   2.226 -0.1065  0.0987 -0.0052
 4405SOL    HW113807   7.065   5.064   2.146  0.2045 -0.3719 -0.3598
 4405SOL    HW213808   7.109   5.106   2.284  1.1297  0.7847 -0.9843
 4406SOL     OW13809   6.948   3.371   2.816 -0.3446  0.0280 -0.5775
 4406SOL    HW113810   6.955   3.297   2.876 -1.7240  0.9353  0.7638
 4406SOL    HW213811   7.024   3.362   2.758  0.9346 -0.9935  1.1758
 4407SOL     OW13812   6.302   0.024   0.142 -0.7964 -0.3512 -0.0049
 4407SOL    HW113813   6.250   0.102   0.122  1.8153  0.7318 -3.7044
 4407SOL    HW213814   6.392   0.053   0.132  0.4192 -3.2390  1.4815
 4408SOL     OW13815   6.239   4.703   0.857  0.2270 -0.4375 -0.8894
 4408SOL    HW113816   6.167   4.764   0.841  1.1641  0.7433 -0.8145
 4408SOL    HW213817   6.317   4.759   0.859  1.3651 -1.8542 -2.6463
 4409SOL     OW13818   0.301   3.467   3.162  0.4357 -0.4602  0.2888
 4409SOL    HW113819   0.273   3.537   3.104 -1.3634 -1.6189 -0.3226
 4409SOL    HW213820   0.397   3.467   3.155  0.6460  2.9071  1.5568
 4410SOL     OW13821   4.435   4.635   2.389 -0.0357  0.1528 -0.3416
 4410SOL    HW113822   4.459   4.590   2.470  0.5493  0.5734 -0.2749
 4410SOL    HW213823   4.368   4.579   2.349 -0.5091  0.0627  0.5498
 4411SOL     OW13824   0.647   0.734   1.436 -0.1916  0.6062 -0.3672
 4411SOL    HW113825   0.739   0.758   1.447 -0.4846  1.5256  0.2450
 4411SOL    HW213826   0.646   0.676   1.360  0.8703  0.7003 -0.4716
 4412SOL     OW13827   6.341   0.663   3.262  0.3859  0.5815 -0.3849
 4412SOL    HW113828   6.295   0.692   3.184  0.9395 -1.3654 -1.4969
 4412SOL    HW213829   6.434   0.673   3.241  0.5751 -1.3203 -0.5765
 4413SOL     OW13830   5.170   0.042   2.821  0.0208 -0.4502 -0.0755
 4413SOL    HW113831   5.200  -0.036   2.774  1.8411  0.3956 -0.3926
 4413SOL    HW213832   5.215   0.114   2.779 -0.8843  0.6907  0.8480
 4414SOL     OW13833   5.258   0.128   0.566 -0.2019 -0.0456  0.0071
 4414SOL    HW113834   5.273   0.188   0.639  0.0874 -0.7301  0.5238
 4414SOL    HW213835   5.170   0.151   0.534 -1.0145 -0.7776  1.5891
 4415SOL     OW13836   7.335   4.082   3.039 -0.0748  0.0813 -0.5813
 4415SOL    HW113837   7.282   4.010   3.004 -0.1259 -1.2790  1.9765
 4415SOL    HW213838   7.294   4.161   3.005 -1.1530 -1.0423 -2.0371
 4416SOL     OW13839   6.831   5.188   2.396 -0.2537  0.3103 -0.1329
 4416SOL    HW113840   6.921   5.213   2.415 -0.6318  0.9586  0.9525
 4416SOL    HW213841   6.793   5.170   2.483 -0.9621 -0.6621 -0.6295
 4417SOL     OW13842   5.016   4.227   3.325  0.0774  0.0618  0.1924
 4417SOL    HW113843   4.941   4.168   3.336 -0.0819 -0.0034 -1.0782
 4417SOL    HW213844   5.089   4.181   3.368 -0.0495 -1.0569 -0.7349
 4418SOL     OW13845   6.296   5.413   1.717 -0.6267  0.3104 -0.5069
 4418SOL    HW113846   6.242   5.409   1.796 -0.7610  0.0508 -0.6103
 4418SOL    HW213847   6.386   5.411   1.749 -0.6359  2.5601 -0.2261
 4419SOL     OW13848   6.751   5.271   3.197  0.3318  0.3145  0.4373
 4419SOL    HW113849   6.701   5.213   3.255  1.8503 -0.4201  1.0529
 4419SOL    HW213850   6.758   5.353   3.247  0.6102  0.0774  0.7957
 4420SOL     OW13851   7.058   4.947   1.415  0.0643  0.1777 -0.0533
 4420SOL    HW113852   7.064   4.974   1.323  1.8790  2.9224  0.7590
 4420SOL    HW213853   6.964   4.950   1.435 -0.6036 -2.3890 -2.2321
 4421SOL     OW13854   5.023   4.828   3.081  0.2244 -0.0277 -0.1340
 4421SOL    HW113855   4.930   4.806   3.088  0.0994  0.1787 -1.0163
 4421SOL    HW213856   5.046   4.866   3.166 -0.7759  0.9180 -0.2651
 4422SOL     OW13857   6.427   4.532   1.455  0.1549  0.1905 -0.1934
 4422SOL    HW113858   6.411   4.625   1.471  0.2804  0.3725 -1.0887
 4422SOL    HW213859   6.506   4.530   1.402  0.6603 -0.4846  0.5686
 4423SOL     OW13860   5.312   4.766   1.968 -0.0278  0.2350  0.3128
 4423SOL    HW113861   5.356   4.772   1.883 -1.3564  0.4111 -0.3792
 4423SOL    HW213862   5.345   4.685   2.006 -0.6028 -0.6812 -1.0649
 4424SOL     OW13863   6.709   5.165   2.965  0.6106  0.0844 -0.6293
 4424SOL    HW113864   6.638   5.216   2.926  0.6277  0.9143  0.4020
 4424SOL    HW213865   6.736   5.215   3.042  1.4171 -0.8982 -0.2498
 4425SOL     OW13866   5.368   4.053   2.171 -0.2498 -0.2590 -0.4240
 4425SOL    HW113867   5.338   4.092   2.253  2.3690  2.7044 -0.6877
 4425SOL    HW213868   5.373   4.127   2.110  1.2348 -1.7348 -2.2011
 4426SOL     OW13869   6.637   4.623   1.302  0.1607 -0.2794 -0.5763
 4426SOL    HW113870   6.715   4.669   1.271 -0.3061  0.1224 -1.1702
 4426SOL    HW213871   6.564   4.674   1.268 -0.3677 -0.6353  0.0051
 4427SOL     OW13872   6.013   4.730   2.791  0.3650 -0.2442  0.0893
 4427SOL    HW113873   6.017   4.635   2.802  0.4572 -0.3488 -0.7766
 4427SOL    HW213874   5.989   4.763   2.877  0.1770 -1.0643  0.3608
 4428SOL     OW13875   5.177   4.184   0.223  0.2387  0.1316  0.3587
 4428SOL    HW113876   5.213   4.159   0.138  1.7604  0.5777  0.8478
 4428SOL    HW213877   5.089   4.145   0.224 -0.0343  0.5907 -1.6236
 4429SOL     OW13878   5.920   0.926   1.973  0.4332  0.7081  0.5192
 4429SOL    HW113879   5.945   0.924   1.881  0.0773 -0.2410  0.4263
 4429SOL    HW213880   5.857   0.854   1.982  1.6322 -0.2434  1.8153
 4430SOL     OW13881   6.406   4.269   0.228 -0.0271  0.1760  0.1578
 4430SOL    HW113882   6.450   4.185   0.221  0.2416  0.1612  1.6470
 4430SOL    HW213883   6.468   4.331   0.189  1.0853  0.0588  1.6114
 4431SOL     OW13884   7.072   4.403   1.853 -0.4016 -1.0070 -0.2233
 4431SOL    HW113885   7.014   4.474   1.881  0.1665 -1.5287  2.6203
 4431SOL    HW213886   7.015   4.328   1.839 -0.9297 -0.2277 -2.5996
 4432SOL     OW13887   7.456   5.128   2.768  0.2668 -0.7100  0.2174
 4432SOL    HW113888   7.515   5.090   2.834  0.5493  1.1746  1.1049
 4432SOL    HW213889   7.389   5.061   2.756  0.9957 -1.7006  1.3736
 4433SOL     OW13890   0.248   5.371   3.502  0.5180  0.5366 -0.0149
 4433SOL    HW113891   0.155   5.392   3.512  0.1957 -1.2723  1.0537
 4433SOL    HW213892   0.284   5.447   3.456 -1.2595  1.7545  0.5039
 4434SOL     OW13893   6.336   5.056   1.940  0.8816  0.0180  0.6456
 4434SOL    HW113894   6.320   5.099   1.857  3.1271 -0.7712 -0.2632
 4434SOL    HW213895   6.275   5.098   2.001  1.7996  3.3506 -0.5046
 4435SOL     OW13896   6.727   4.221   1.630  0.2431 -0.3002 -0.2564
 4435SOL    HW113897   6.687   4.207   1.716 -0.9827  0.6305 -0.6462
 4435SOL    HW213898   6.700   4.310   1.606  0.8117 -0.4446 -1.4785
 4436SOL     OW13899   5.457   4.320   1.155 -0.0109  0.0693 -0.5759
 4436SOL    HW113900   5.482   4.412   1.160 -2.1499  0.7124 -0.4378
 4436SOL    HW213901   5.532   4.276   1.115  2.3297  1.3033  2.1101
 4437SOL     OW13902   0.758   5.024   3.253 -0.6511  0.5975  0.6695
 4437SOL    HW113903   0.670   5.002   3.221 -0.9397  2.7120 -0.1763
 4437SOL    HW213904   0.751   5.116   3.278  1.4784  0.9671  0.0497
 4438SOL     OW13905   5.453   5.154   2.549  0.1234 -0.5065  0.4546
 4438SOL    HW113906   5.419   5.103   2.476  2.0315 -0.7948 -0.3025
 4438SOL    HW213907   5.510   5.093   2.596  0.4530  0.2226  1.0219
 4439SOL     OW13908   5.896   0.436   0.580 -0.3867 -0.3747 -0.1150
 4439SOL    HW113909   5.853   0.478   0.505 -1.0454  1.5041  1.2231
 4439SOL    HW213910   5.981   0.479   0.585 -0.5016 -0.2063  0.4271
 4440SOL     OW13911   6.952   5.224   1.248 -0.1776  0.1902  0.7295
 4440SOL    HW113912   6.919   5.194   1.333  0.5121 -1.5186  0.4299
 4440SOL    HW213913   7.047   5.234   1.262 -0.4110  2.7511  0.9302
 4441SOL     OW13914   5.241   4.132   3.515  0.1529  0.0130 -0.2613
 4441SOL    HW113915   5.262   4.206   3.458  2.0619 -0.1399  0.2002
 4441SOL    HW213916   5.321   4.079   3.518 -1.5166 -2.8791 -1.6969
 4442SOL     OW13917   7.035   4.879   2.973 -0.6569 -0.0864  0.0940
 4442SOL    HW113918   7.114   4.934   2.968 -0.4324 -0.2167  1.7114
 4442SOL    HW213919   6.975   4.918   2.909  0.5964  0.1842 -0.9665
 4443SOL     OW13920   4.829   0.138   2.000 -0.0271 -0.4455  0.5372
 4443SOL    HW113921   4.738   0.135   1.971  0.1440  0.3901 -0.1159
 4443SOL    HW213922   4.831   0.206   2.068  0.0684 -0.5987  0.6887
 4444SOL     OW13923   6.677   0.505   2.552  0.0163  0.1400 -0.2366
 4444SOL    HW113924   6.699   0.596   2.533 -2.0934  0.7254 -0.0471
 4444SOL    HW213925   6.712   0.456   2.478  2.6425  0.8372  0.4371
 4445SOL     OW13926   6.732   4.579   2.258 -0.1544  0.1465 -0.3185
 4445SOL    HW113927   6.769   4.667   2.248  1.5137 -0.5932 -0.9347
 4445SOL    HW213928   6.647   4.594   2.301  0.3430  2.0000  0.1186
 4446SOL     OW13929   6.662   3.365   3.222  0.1340 -0.0283  0.6009
 4446SOL    HW113930   6.699   3.422   3.154 -0.9538 -0.7103 -0.6173
 4446SOL    HW213931   6.722   3.374   3.296  1.3196  0.8050 -0.4104
 4447SOL     OW13932   0.488   5.162   1.795  0.1820 -0.4075 -0.1318
 4447SOL    HW113933   0.501   5.236   1.853 -0.0251 -0.1435 -0.4202
 4447SOL    HW213934   0.527   5.087   1.842 -0.1316 -0.2311  0.4116
 4448SOL     OW13935   5.744   0.085   3.373 -0.8666  0.0954  0.1894
 4448SOL    HW113936   5.753   0.117   3.463 -0.5292 -0.5745  0.3966
 4448SOL    HW213937   5.718   0.162   3.323  1.8182  1.2068  0.3161
 4449SOL     OW13938   6.785   3.914   2.687  0.2770 -0.0729  0.1636
 4449SOL    HW113939   6.698   3.947   2.667 -0.5740 -1.2942  1.6643
 4449SOL    HW213940   6.825   3.982   2.742 -0.5102 -0.3868  1.1530
 4450SOL     OW13941   7.229   4.316   2.060  0.1373  0.2885  0.2681
 4450SOL    HW113942   7.152   4.309   2.116 -0.5631 -0.8867 -0.7861
 4450SOL    HW213943   7.194   4.346   1.976  0.8606 -0.0184 -0.1503
 4451SOL     OW13944   6.591   4.162   3.380  0.4610 -0.0333  0.1378
 4451SOL    HW113945   6.605   4.256   3.391 -1.2558  0.3292 -0.5161
 4451SOL    HW213946   6.506   4.155   3.336  0.6006 -1.8915  0.0857
 4452SOL     OW13947   5.287   1.165   1.972 -0.3863 -0.5695 -0.1730
 4452SOL    HW113948   5.358   1.183   2.034 -1.6927 -1.4560  1.6843
 4452SOL    HW213949   5.302   1.075   1.944  0.2021 -0.1689 -1.1728
   7.50782   5.45800   3.55045
