Curcumin on GO nanoflake, explicit water
13949
    1GOFLA   C1    1   3.144   1.102   1.571  0.0741 -0.1577  0.5811
    1GOFLA   C2    2   3.037   1.271   1.721 -0.4589  0.2841  0.1934
    1GOFLA   C3    3   2.915   1.452   1.823 -0.7523  0.4320 -0.5880
    1GOFLA   C4    4   2.779   1.654   1.891  0.0999  0.1757 -0.0557
    1GOFLA   C5    5   2.651   1.841   1.988  0.0955  1.2844 -0.1352
    1GOFLA   C6    6   2.502   2.033   2.034  0.3909 -0.3619  0.3061
    1GOFLA   C7    7   2.371   2.211   2.150 -0.0792  0.0073  0.2219
    1GOFLA   C8    8   2.233   2.403   2.202 -0.2266 -0.4437 -0.9002
    1GOFLA   C9    9   2.097   2.593   2.285 -0.0880 -0.2034  0.7502
    1GOFLA  C10   10   1.952   2.796   2.314  0.3705  0.4965 -0.5506
    1GOFLA  C11   11   1.799   2.986   2.282 -0.5126  0.3287  0.5342
    1GOFLA  C12   12   1.666   3.181   2.227 -0.2205 -0.0600 -0.3603
    1GOFLA  C13   13   1.525   3.383   2.176 -0.5962  0.3165 -0.0463
    1GOFLA  C14   14   3.250   1.067   1.477  0.2011 -0.4673 -0.1851
    1GOFLA  C15   15   3.362   1.151   1.467 -0.2474 -0.0683 -1.0025
    1GOFLA  C16   16   3.143   1.226   1.644 -1.1043 -0.2411 -0.7273
    1GOFLA  C17   17   3.248   1.321   1.620 -0.0731  0.5329  1.0645
    1GOFLA  C18   18   3.041   1.400   1.784  0.8723 -0.5524 -0.2616
    1GOFLA  C19   19   3.154   1.481   1.786  0.0133  0.2186  0.4005
    1GOFLA  C20   20   2.904   1.590   1.861  0.2838 -0.1075  0.0012
    1GOFLA  C21   21   3.026   1.668   1.886 -0.1656  0.2732 -0.2446
    1GOFLA  C22   22   2.775   1.779   1.955  0.0906  0.3759 -0.6915
    1GOFLA  C23   23   2.894   1.855   1.966 -0.1317 -1.1717 -0.1497
    1GOFLA  C24   24   2.630   1.978   2.006 -0.3265 -0.4928  0.8778
    1GOFLA  C25   25   2.752   2.057   2.020 -0.3689 -0.6087  0.2413
    1GOFLA  C26   26   2.495   2.160   2.104 -0.2566  0.5372  0.0125
    1GOFLA  C27   27   2.617   2.241   2.116  0.1929  0.9092 -0.0427
    1GOFLA  C28   28   2.366   2.345   2.184 -0.1306  0.3672 -0.2757
    1GOFLA  C29   29   2.478   2.429   2.199 -0.8525 -0.3020 -0.6780
    1GOFLA  C30   30   2.221   2.542   2.234  0.4175 -0.5590 -0.5017
    1GOFLA  C31   31   2.336   2.625   2.238  0.1546 -0.1068  0.0175
    1GOFLA  C32   32   2.082   2.735   2.310 -0.1718 -0.0593  0.3322
    1GOFLA  C33   33   2.197   2.819   2.286 -0.6428 -0.3106 -0.5786
    1GOFLA  C34   34   1.935   2.931   2.297  0.4812 -0.4370 -0.0467
    1GOFLA  C35   35   2.050   3.016   2.289  0.1945 -0.4499 -0.3062
    1GOFLA  C36   36   1.789   3.126   2.262 -0.6701 -0.1557  0.2848
    1GOFLA  C37   37   1.907   3.210   2.272  0.5006 -0.0954  0.5070
    1GOFLA  C38   38   1.651   3.322   2.205 -0.2245  0.5738  0.2530
    1GOFLA  C39   39   1.770   3.407   2.221  0.3141  0.2651 -0.1338
    1GOFLA  C40   40   1.516   3.526   2.161  0.0351 -0.0495 -0.4374
    1GOFLA  C41   41   1.625   3.608   2.188  0.5039 -0.4095 -0.2762
    1GOFLA  C42   42   3.480   1.093   1.403 -0.1953  0.3156  0.2651
    1GOFLA  C43   43   3.600   1.167   1.412 -0.2975 -0.0072  0.5951
    1GOFLA  C44   44   3.356   1.281   1.532  0.5215  0.4449  0.3844
    1GOFLA  C45   45   3.473   1.358   1.510  0.2371  0.4813 -0.7078
    1GOFLA  C46   46   3.259   1.439   1.694  1.3696 -0.4921 -0.2874
    1GOFLA  C47   47   3.364   1.528   1.651 -0.8766  0.7533  0.0644
    1GOFLA  C48   48   3.150   1.613   1.845 -0.3503  0.1432 -0.1321
    1GOFLA  C49   49   3.266   1.699   1.818  1.0377  0.3128  0.0232
    1GOFLA  C50   50   3.015   1.804   1.913  0.1429 -0.2928  0.2822
    1GOFLA  C51   51   3.129   1.891   1.890  0.6030 -0.1203 -0.5868
    1GOFLA  C52   52   2.881   1.993   2.008 -0.3476 -0.4774  0.0629
    1GOFLA  C53   53   2.997   2.075   1.997 -0.1048  0.8459  0.1425
    1GOFLA  C54   54   2.747   2.192   2.076  0.3143  0.9050  0.5723
    1GOFLA  C55   55   2.858   2.275   2.071  0.0161  0.0111 -0.3625
    1GOFLA  C56   56   2.606   2.379   2.156 -0.7271  0.1781  0.0142
    1GOFLA  C57   57   2.716   2.464   2.132  0.1472  0.2377  0.1051
    1GOFLA  C58   58   2.461   2.570   2.207 -0.1036 -0.4538  0.4938
    1GOFLA  C59   59   2.577   2.655   2.197 -0.0897 -0.0083 -0.0560
    1GOFLA  C60   60   2.321   2.767   2.259 -1.0007 -0.0395 -0.4122
    1GOFLA  C61   61   2.438   2.849   2.242  0.4478  0.7304  0.5852
    1GOFLA  C62   62   2.180   2.961   2.280 -0.0718 -0.0460 -0.2876
    1GOFLA  C63   63   2.293   3.042   2.256 -0.1073 -0.1803  0.5034
    1GOFLA  C64   64   2.038   3.159   2.288  0.2244  0.0773 -0.4861
    1GOFLA  C65   65   2.151   3.243   2.277  0.0792 -0.1089 -0.0847
    1GOFLA  C66   66   1.893   3.353   2.247 -0.2829 -0.8289 -0.1356
    1GOFLA  C67   67   2.003   3.435   2.289 -0.4257 -0.3282  0.1003
    1GOFLA  C68   68   1.755   3.550   2.213  0.1334 -0.1206 -0.1239
    1GOFLA  C69   69   1.860   3.639   2.255  0.0206 -0.2542  0.2676
    1GOFLA  C70   70   3.710   1.125   1.331  0.7683  0.1522  0.1945
    1GOFLA  C71   71   3.826   1.207   1.317 -0.2100 -0.1144  0.1262
    1GOFLA  C72   72   3.593   1.296   1.465  0.3430 -0.0094  0.6549
    1GOFLA  C73   73   3.703   1.381   1.446  0.4592  0.2303 -0.0071
    1GOFLA  C74   74   3.478   1.484   1.575  0.0469 -0.7875 -0.2206
    1GOFLA  C75   75   3.598   1.556   1.587  0.5134 -0.3382  0.0082
    1GOFLA  C76   76   3.369   1.655   1.714 -0.1474  0.0261  0.0263
    1GOFLA  C77   77   3.474   1.750   1.687 -0.2369  0.5858 -0.1979
    1GOFLA  C78   78   3.257   1.835   1.860  0.5231  0.5219  0.2792
    1GOFLA  C79   79   3.364   1.928   1.809  0.5066  0.5839  0.1914
    1GOFLA  C80   80   3.117   2.026   1.932 -0.2960  0.4706 -0.4867
    1GOFLA  C81   81   3.231   2.112   1.907  0.1328  0.1401  0.4810
    1GOFLA  C82   82   2.981   2.219   2.022  0.0393 -0.0266  1.1343
    1GOFLA  C83   83   3.093   2.303   1.998 -0.6592 -0.6351 -0.7023
    1GOFLA  C84   84   2.845   2.411   2.094  0.0623  0.4175 -0.4467
    1GOFLA  C85   85   2.946   2.496   2.054  0.0821  0.0460  0.3451
    1GOFLA  C86   86   2.701   2.602   2.149 -0.0477  0.0275 -0.2995
    1GOFLA  C87   87   2.811   2.692   2.125 -0.2611  0.4433 -0.1213
    1GOFLA  C88   88   2.566   2.798   2.202  0.2243  0.5456  0.0011
    1GOFLA  C89   89   2.680   2.885   2.184  0.1379 -0.3189  0.0126
    1GOFLA  C90   90   2.424   2.985   2.276  0.1066 -0.7058 -0.0808
    1GOFLA  C91   91   2.537   3.076   2.247  0.2510 -0.0117  0.2383
    1GOFLA  C92   92   2.276   3.185   2.253 -0.4266  0.3913 -0.8698
    1GOFLA  C93   93   2.391   3.272   2.254  0.1406 -0.2324  0.2336
    1GOFLA  C94   94   2.131   3.387   2.271 -0.0511 -0.2467 -0.3625
    1GOFLA  C95   95   2.243   3.468   2.288 -0.3802 -0.7232 -0.1737
    1GOFLA  C96   96   1.986   3.577   2.285 -0.7292 -0.1301  0.3223
    1GOFLA  C97   97   2.091   3.653   2.333  0.6481 -0.2159  0.7407
    1GOFLA  C98   98   3.943   1.162   1.249  0.1759 -0.0842 -0.5542
    1GOFLA  C99   99   4.061   1.246   1.255  0.4713  0.4442 -0.0582
    1GOFLA C100  100   3.816   1.342   1.370 -0.5950  0.3350 -0.5240
    1GOFLA C101  101   3.934   1.424   1.363 -0.0439 -0.2007  0.8238
    1GOFLA C102  102   3.711   1.509   1.515 -0.2386 -0.0956 -0.7417
    1GOFLA C103  103   3.824   1.593   1.508  0.5430 -0.3959  0.3160
    1GOFLA C104  104   3.604   1.683   1.661 -0.8922 -0.0632  0.5614
    1GOFLA C105  105   3.705   1.779   1.620  0.1551  0.4344 -0.4078
    1GOFLA C106  106   3.474   1.884   1.739 -0.5735 -0.5153 -0.1574
    1GOFLA C107  107   3.575   1.974   1.705  0.0702 -0.3299  0.7221
    1GOFLA C108  108   3.351   2.067   1.842  0.4994  0.0307 -0.1037
    1GOFLA C109  109   3.449   2.160   1.797  0.7944 -0.4716  0.1735
    1GOFLA C110  110   3.219   2.250   1.946 -0.5689 -0.6526  0.6081
    1GOFLA C111  111   3.320   2.344   1.905  0.0335  0.3955  0.0087
    1GOFLA C112  112   3.074   2.444   2.014  0.6124  0.0135 -0.3488
    1GOFLA C113  113   3.185   2.539   1.995  0.5034  0.7723 -0.0199
    1GOFLA C114  114   2.932   2.637   2.081 -0.7497  0.0879  0.8432
    1GOFLA C115  115   3.046   2.723   2.066  0.3697  0.1704 -0.0706
    1GOFLA C116  116   2.801   2.830   2.140  0.5202 -0.2297  0.3473
    1GOFLA C117  117   2.909   2.921   2.107  0.2234 -0.1286 -0.2014
    1GOFLA C118  118   2.667   3.028   2.209  0.3857  0.6436 -0.2591
    1GOFLA C119  119   2.769   3.110   2.177 -0.6404 -0.1455 -0.4387
    1GOFLA C120  120   2.524   3.217   2.273  0.0644 -0.0110  0.4271
    1GOFLA C121  121   2.638   3.302   2.268  0.4022  0.0544  0.2595
    1GOFLA C122  122   2.375   3.412   2.285 -0.3965 -0.2049  0.4622
    1GOFLA C123  123   2.491   3.504   2.294  0.0761 -0.3208 -0.3907
    1GOFLA C124  124   2.225   3.607   2.323  0.5018 -0.0065 -0.3185
    1GOFLA C125  125   2.340   3.699   2.330 -0.1934  0.1898 -0.3492
    1GOFLA C126  126   4.176   1.198   1.184 -0.4383  0.0540 -0.2074
    1GOFLA C127  127   4.293   1.279   1.173 -0.9892  0.4672 -0.4224
    1GOFLA C128  128   4.055   1.381   1.295 -0.1862 -0.6980 -0.0440
    1GOFLA C129  129   4.172   1.461   1.281  0.6033 -0.8866 -0.4752
    1GOFLA C130  130   3.935   1.550   1.430 -0.5537 -0.2454 -0.0744
    1GOFLA C131  131   4.023   1.642   1.370  0.3104 -0.3326 -0.6851
    1GOFLA C132  132   3.810   1.732   1.536 -0.2885 -0.6875 -0.5273
    1GOFLA C133  133   3.904   1.825   1.475  0.7699 -0.3522 -0.0451
    1GOFLA C134  134   3.682   1.920   1.635 -0.2177 -0.4489 -0.5360
    1GOFLA C135  135   3.783   2.013   1.587 -0.1378 -0.7834  0.5078
    1GOFLA C136  136   3.561   2.111   1.736 -0.1662 -0.9262 -0.1037
    1GOFLA C137  137   3.670   2.200   1.709 -0.1160 -0.1033 -0.4208
    1GOFLA C138  138   3.437   2.296   1.842 -0.8935 -0.3242 -0.3314
    1GOFLA C139  139   3.543   2.385   1.815  0.3697  0.3489 -0.3150
    1GOFLA C140  140   3.299   2.485   1.941 -0.6086  0.3704 -0.1284
    1GOFLA C141  141   3.413   2.570   1.915 -0.7751 -0.5528  0.6133
    1GOFLA C142  142   3.174   2.673   2.029  0.1292 -0.1255 -0.5087
    1GOFLA C143  143   3.282   2.757   1.999  0.0868 -0.5838  0.0246
    1GOFLA C144  144   3.038   2.866   2.075  0.6182  0.2694 -0.7810
    1GOFLA C145  145   3.147   2.956   2.046 -0.3417  0.5173 -0.0277
    1GOFLA C146  146   2.897   3.052   2.161  0.6398  0.9193 -0.2867
    1GOFLA C147  147   3.008   3.140   2.125 -0.0392  0.8943 -0.6744
    1GOFLA C148  148   2.754   3.246   2.212 -0.5436  0.1045  0.3628
    1GOFLA C149  149   2.862   3.332   2.182  0.9113 -0.1533 -0.9234
    1GOFLA C150  150   2.618   3.443   2.279 -0.4131  0.3955  0.0620
    1GOFLA C151  151   2.717   3.531   2.226 -0.2510  0.6009 -0.0241
    1GOFLA C152  152   2.476   3.649   2.320  0.1007  0.0236 -0.4549
    1GOFLA C153  153   2.587   3.732   2.277 -0.3440 -0.3181 -0.2879
    1GOFLA C154  154   4.397   1.233   1.091 -0.5057  0.0196  1.0896
    1GOFLA C155  155   4.475   1.328   1.018 -0.0115  0.5770 -0.6446
    1GOFLA C156  156   4.295   1.413   1.229 -0.7006  0.0264  0.8939
    1GOFLA C157  157   4.366   1.513   1.158 -0.5820 -0.2545  0.2353
    1GOFLA C158  158   4.136   1.603   1.291 -0.2170  0.6758 -0.0316
    1GOFLA C159  159   4.232   1.700   1.242 -0.4118 -0.0151 -0.6776
    1GOFLA C160  160   4.019   1.779   1.407  0.4221 -0.3298  0.1492
    1GOFLA C161  161   4.126   1.878   1.377 -0.3075 -0.1595 -0.3833
    1GOFLA C162  162   3.894   1.962   1.506  0.0767  0.4485 -0.0069
    1GOFLA C163  163   3.997   2.058   1.476 -0.5368  0.7211 -0.2344
    1GOFLA C164  164   3.789   2.146   1.643  0.8340 -0.0599 -0.2341
    1GOFLA C165  165   3.903   2.229   1.621  0.2535  0.4404 -0.0480
    1GOFLA C166  166   3.655   2.340   1.742  0.3268  0.4913  0.0513
    1GOFLA C167  167   3.765   2.425   1.713 -0.4644 -0.8569  0.3013
    1GOFLA C168  168   3.536   2.521   1.856  0.8469 -0.0093 -0.4148
    1GOFLA C169  169   3.647   2.611   1.827  0.4545 -0.3293 -0.2186
    1GOFLA C170  170   3.408   2.711   1.952 -0.5485  0.5439  0.0932
    1GOFLA C171  171   3.522   2.791   1.922 -0.0009 -0.4640 -0.5368
    1GOFLA C172  172   3.272   2.899   2.013  0.4463 -0.4250 -0.4302
    1GOFLA C173  173   3.378   2.985   1.981 -0.6656 -0.4118 -0.1247
    1GOFLA C174  174   3.138   3.090   2.082 -0.4983 -1.0315 -0.4497
    1GOFLA C175  175   3.244   3.180   2.055  0.6950 -1.5140  0.1458
    1GOFLA C176  176   2.986   3.282   2.142 -0.4147  0.0038 -0.3847
    1GOFLA C177  177   3.094   3.369   2.109  0.2312 -0.3892  1.2895
    1GOFLA C178  178   2.844   3.478   2.187  0.1560 -0.2033  0.2136
    1GOFLA C179  179   2.952   3.567   2.160 -0.3538  0.1937  0.0870
    1GOFLA C180  180   2.704   3.676   2.218  0.3727  0.0844 -0.4781
    1GOFLA C181  181   2.814   3.765   2.216 -0.4113  0.7645 -0.1642
    1GOFLA C182  182   4.544   1.297   0.896 -0.2814  0.5557 -0.2159
    1GOFLA C183  183   4.620   1.398   0.827  0.4808  0.1732  0.0994
    1GOFLA C184  184   4.472   1.468   1.064  0.6248 -0.1605 -0.2234
    1GOFLA C185  185   4.541   1.570   0.991  0.4456  0.4996  0.4980
    1GOFLA C186  186   4.340   1.653   1.159 -0.1936 -0.3548 -0.4740
    1GOFLA C187  187   4.445   1.746   1.125 -0.1956  0.3058  0.0425
    1GOFLA C188  188   4.237   1.831   1.293  0.6117 -0.1161  0.1344
    1GOFLA C189  189   4.307   1.923   1.215 -0.2327 -0.3040 -0.4526
    1GOFLA C190  190   4.118   2.013   1.421 -0.1757  0.8818  0.1569
    1GOFLA C191  191   4.211   2.105   1.368 -0.4325 -0.0062  0.5690
    1GOFLA C192  192   3.993   2.194   1.520 -0.1314  0.3619 -0.4464
    1GOFLA C193  193   4.097   2.283   1.490 -0.0934 -0.1937 -0.6388
    1GOFLA C194  194   3.888   2.365   1.655  0.8070 -0.6405  0.3240
    1GOFLA C195  195   3.995   2.458   1.630 -0.0440 -0.2848  0.0356
    1GOFLA C196  196   3.756   2.567   1.758 -0.0334  0.2800 -0.1613
    1GOFLA C197  197   3.869   2.651   1.734 -0.6107  0.3327 -0.2297
    1GOFLA C198  198   3.646   2.741   1.873  0.1547 -0.1937 -0.0729
    1GOFLA C199  199   3.753   2.829   1.854 -0.9256 -0.1915 -0.5241
    1GOFLA C200  200   3.503   2.930   1.934 -0.1988 -0.2526  0.3773
    1GOFLA C201  201   3.621   3.019   1.917  0.0557  0.9617 -0.4231
    1GOFLA C202  202   3.367   3.123   2.017 -1.1487  0.5392 -0.1070
    1GOFLA C203  203   3.471   3.210   1.972 -0.3506  0.5918 -0.4076
    1GOFLA C204  204   3.224   3.320   2.076  0.1488  0.2858 -0.3306
    1GOFLA C205  205   3.325   3.406   2.022 -0.2484 -0.5505  0.6030
    1GOFLA C206  206   3.081   3.508   2.127  0.0822  0.7264 -0.0921
    1GOFLA C207  207   3.190   3.594   2.101  0.1650  0.5033 -0.4654
    1GOFLA C208  208   2.943   3.712   2.163  0.7567  0.1885 -0.1583
    1GOFLA C209  209   3.060   3.795   2.163 -0.8405  0.4497  0.7551
    1GOFLA C210  210   4.701   1.360   0.713  0.2943 -0.6714 -0.0434
    1GOFLA C211  211   4.771   1.458   0.638  0.7241  0.0212  0.1183
    1GOFLA C212  212   4.608   1.537   0.867 -0.0413  0.4100 -0.3928
    1GOFLA C213  213   4.694   1.627   0.803 -0.0226 -0.3074 -0.3068
    1GOFLA C214  214   4.536   1.705   1.029  0.5761 -0.0428  0.5761
    1GOFLA C215  215   4.616   1.800   0.958 -0.1564 -0.7543  0.3581
    1GOFLA C216  216   4.423   1.885   1.155 -0.3117 -0.5843  0.4682
    1GOFLA C217  217   4.506   1.980   1.083  0.1954  0.0989 -0.6345
    1GOFLA C218  218   4.306   2.059   1.264 -0.1260 -0.4731 -0.2657
    1GOFLA C219  219   4.394   2.160   1.208 -0.0698  0.0308  0.4645
    1GOFLA C220  220   4.205   2.239   1.411 -0.2860 -0.2005 -0.1369
    1GOFLA C221  221   4.319   2.322   1.383  0.2405 -0.1794 -0.0886
    1GOFLA C222  222   4.094   2.415   1.539  0.7466 -0.3213  0.4439
    1GOFLA C223  223   4.204   2.496   1.510 -0.5503  0.0263  0.4776
    1GOFLA C224  224   3.987   2.598   1.658 -0.0222  0.0721 -0.2284
    1GOFLA C225  225   4.092   2.689   1.626 -0.6713  0.0779  0.8452
    1GOFLA C226  226   3.871   2.780   1.793 -0.0255  0.8548  0.2388
    1GOFLA C227  227   3.983   2.866   1.758  0.6255 -0.0172  0.2227
    1GOFLA C228  228   3.742   2.970   1.866 -0.1580  1.0444  0.1201
    1GOFLA C229  229   3.854   3.062   1.854 -0.4567 -0.6029  0.1545
    1GOFLA C230  230   3.598   3.162   1.928 -0.3283 -0.2015 -0.2088
    1GOFLA C231  231   3.698   3.252   1.891  1.0920  0.1325 -0.1377
    1GOFLA C232  232   3.448   3.354   1.971  0.1230 -0.0687  0.5064
    1GOFLA C233  233   3.555   3.445   1.941  0.3804 -0.3370 -0.6310
    1GOFLA C234  234   3.313   3.545   2.054  0.9419  0.6119 -0.0419
    1GOFLA C235  235   3.414   3.629   2.011  0.3970  0.3668 -0.4505
    1GOFLA C236  236   3.178   3.737   2.116 -0.0926  0.2483  0.6459
    1GOFLA C237  237   3.287   3.826   2.089 -0.1022 -0.0937  0.5970
    1GOFLA C238  238   4.808   1.435   0.502 -0.1619 -0.2303  0.0973
    1GOFLA C239  239   4.895   1.529   0.437  0.3624 -0.4769 -0.7760
    1GOFLA C240  240   4.765   1.594   0.686  0.2371  0.0915 -0.5158
    1GOFLA C241  241   4.824   1.701   0.611  0.0818  0.1713  0.8210
    1GOFLA C242  242   4.707   1.758   0.857  0.0621 -0.3845  0.0267
    1GOFLA C243  243   4.794   1.857   0.799 -0.2387  0.1150  0.4675
    1GOFLA C244  244   4.618   1.935   1.006  0.0918 -0.0015 -0.3674
    1GOFLA C245  245   4.703   2.028   0.940 -0.0068  0.2949  0.0287
    1GOFLA C246  246   4.496   2.118   1.120  0.0109  1.0347  0.6256
    1GOFLA C247  247   4.595   2.204   1.074 -0.4083  0.3427 -0.3366
    1GOFLA C248  248   4.409   2.285   1.273  0.2805 -0.0237 -0.1254
    1GOFLA C249  249   4.505   2.378   1.224  0.3706 -0.2008 -0.0846
    1GOFLA C250  250   4.319   2.456   1.433  0.4262  1.0338  0.6081
    1GOFLA C251  251   4.429   2.545   1.396 -0.0797  0.3627  0.2529
    1GOFLA C252  252   4.201   2.636   1.554 -0.0972  0.2547  0.4197
    1GOFLA C253  253   4.314   2.727   1.530 -0.6198  0.1759 -0.1883
    1GOFLA C254  254   4.096   2.819   1.682 -0.3403  0.4458  0.0151
    1GOFLA C255  255   4.199   2.912   1.643 -0.4093  0.4176  0.3505
    1GOFLA C256  256   3.979   3.006   1.798 -0.2957  0.1114  0.4527
    1GOFLA C257  257   4.085   3.101   1.755  0.8203 -0.1452 -0.0253
    1GOFLA C258  258   3.830   3.203   1.876 -0.2850 -0.5085  0.1195
    1GOFLA C259  259   3.928   3.293   1.821 -1.0573 -0.3226 -0.0779
    1GOFLA C260  260   3.682   3.394   1.903 -0.4551 -0.8227 -0.4942
    1GOFLA C261  261   3.787   3.488   1.876 -0.5085 -0.0902 -0.9194
    1GOFLA C262  262   3.534   3.582   1.951 -0.2259 -0.2582 -0.2386
    1GOFLA C263  263   3.629   3.671   1.887  0.4097  0.1741  0.2034
    1GOFLA C264  264   3.404   3.774   2.028  0.3293  0.1851  0.3604
    1GOFLA C265  265   3.488   3.865   1.962 -0.9168  0.8793  0.4008
    1GOFLA C266  266   4.985   1.492   0.337  0.6802 -0.4680 -0.0090
    1GOFLA C267  267   5.070   1.587   0.270 -0.1881  0.4233 -0.0649
    1GOFLA C268  268   4.908   1.656   0.500 -0.2462  0.3955  0.5097
    1GOFLA C269  269   4.993   1.755   0.431  0.2175 -0.6297 -0.1731
    1GOFLA C270  270   4.870   1.820   0.681 -0.6383 -0.3716  0.0422
    1GOFLA C271  271   4.925   1.921   0.591 -0.0474  0.1336  0.3602
    1GOFLA C272  272   4.785   1.994   0.832 -0.2677  0.4130  0.6209
    1GOFLA C273  273   4.852   2.090   0.754  0.8527 -0.4504 -0.4779
    1GOFLA C274  274   4.696   2.160   0.988  0.5554 -0.2310 -0.4805
    1GOFLA C275  275   4.782   2.256   0.925 -0.0854  0.3359 -0.5481
    1GOFLA C276  276   4.606   2.333   1.129 -0.2420 -0.1343 -0.5572
    1GOFLA C277  277   4.703   2.427   1.076  0.3843 -0.0167 -0.7497
    1GOFLA C278  278   4.516   2.507   1.284  0.8100 -0.4454 -0.0401
    1GOFLA C279  279   4.607   2.602   1.234  0.6634  0.7372  0.5530
    1GOFLA C280  280   4.426   2.677   1.449  0.1779  0.5325  0.0826
    1GOFLA C281  281   4.502   2.773   1.375  0.4908 -0.2990 -0.4144
    1GOFLA C282  282   4.313   2.869   1.568  0.1169 -0.3958  0.2540
    1GOFLA C283  283   4.394   2.963   1.503 -0.1849 -0.1994 -0.3858
    1GOFLA C284  284   4.178   3.054   1.661 -0.1803 -0.4713 -0.7678
    1GOFLA C285  285   4.266   3.149   1.603  0.8940  0.0713  0.2959
    1GOFLA C286  286   4.049   3.239   1.750 -0.0312 -0.6230  0.2171
    1GOFLA C287  287   4.132   3.336   1.681 -0.1068  0.2540 -0.5091
    1GOFLA C288  288   3.913   3.433   1.834 -0.2040 -0.5019 -0.3450
    1GOFLA C289  289   4.005   3.525   1.772 -0.4898 -0.2377  0.1842
    1GOFLA C290  290   3.762   3.627   1.865  0.5041  0.2712 -0.9322
    1GOFLA C291  291   3.849   3.709   1.794 -0.7944  0.1347 -0.2837
    1GOFLA C292  292   3.599   3.811   1.885 -0.1919 -0.5937  0.2526
    1GOFLA C293  293   3.689   3.899   1.823 -0.8404  0.1929  0.0078
    1GOFLA C294  294   5.141   1.553   0.149  0.3526  0.2920 -0.2934
    1GOFLA C295  295   5.206   1.650   0.068  0.2314  0.0277  0.0987
    1GOFLA C296  296   5.043   1.722   0.298  0.0693 -0.6751 -0.0746
    1GOFLA C297  297   5.113   1.825   0.223  0.5116 -0.0557 -0.6286
    1GOFLA C298  298   5.015   1.885   0.487  0.1164 -0.3325 -0.0785
    1GOFLA C299  299   5.068   1.986   0.401  0.6833 -0.3236 -0.2602
    1GOFLA C300  300   4.908   2.056   0.625  0.1581 -0.6836  0.1546
    1GOFLA C301  301   4.973   2.158   0.551 -0.4575 -0.1365 -0.3821
    1GOFLA C302  302   4.846   2.221   0.802 -0.2713 -0.4327  0.2832
    1GOFLA C303  303   4.911   2.323   0.730 -0.3314  0.1571 -0.6755
    1GOFLA C304  304   4.787   2.391   0.969  0.4100  0.2135  0.8675
    1GOFLA C305  305   4.857   2.491   0.899  0.1788  0.3258  0.3411
    1GOFLA C306  306   4.699   2.559   1.126 -0.0575  0.4891 -0.5582
    1GOFLA C307  307   4.788   2.652   1.069  0.7944 -0.6356 -0.3084
    1GOFLA C308  308   4.608   2.733   1.283 -0.4006 -0.0775 -0.1582
    1GOFLA C309  309   4.710   2.821   1.234  0.4021  0.3418 -0.0735
    1GOFLA C310  310   4.488   2.913   1.406  0.1399  0.4009 -0.1262
    1GOFLA C311  311   4.591   3.001   1.367 -0.4039 -0.2544  0.4774
    1GOFLA C312  312   4.379   3.101   1.532  0.4594 -0.2199  0.1789
    1GOFLA C313  313   4.472   3.192   1.475 -0.1056 -0.5638  0.5285
    1GOFLA C314  314   4.239   3.287   1.602  0.4945  0.5089  0.1395
    1GOFLA C315  315   4.327   3.378   1.542 -0.5160 -0.0927 -0.0644
    1GOFLA C316  316   4.122   3.476   1.704  0.3068  0.1178 -0.5749
    1GOFLA C317  317   4.197   3.568   1.625  0.0069 -0.3838 -0.3323
    1GOFLA C318  318   3.986   3.666   1.774  0.6279  0.2732  0.5747
    1GOFLA C319  319   4.072   3.760   1.712  0.0551 -0.5054 -0.4783
    1GOFLA C320  320   3.817   3.852   1.775  0.4120  0.0150  0.7629
    1GOFLA C321  321   3.926   3.947   1.772  0.3253 -0.4789  0.4037
    1GOFLA C322  322   5.275   1.608  -0.047 -0.5562  0.4601 -0.7795
    1GOFLA C323  323   5.335   1.710  -0.120 -0.8383 -0.1872  0.3398
    1GOFLA C324  324   5.194   1.785   0.113  0.2786 -0.6898 -0.7027
    1GOFLA C325  325   5.259   1.888   0.041  0.7033  0.0161  0.1848
    1GOFLA C326  326   5.121   1.957   0.272 -0.2980  0.3317  0.4522
    1GOFLA C327  327   5.174   2.061   0.193 -0.0999  0.0702  0.4729
    1GOFLA C328  328   5.069   2.124   0.450 -0.2961  0.0452 -0.2937
    1GOFLA C329  329   5.105   2.227   0.362  0.3925  0.1545 -0.0876
    1GOFLA C330  330   4.977   2.293   0.610  0.2458 -0.4650  0.3864
    1GOFLA C331  331   5.056   2.389   0.536  0.2148  0.2776 -0.5070
    1GOFLA C332  332   4.916   2.457   0.780 -0.0324  0.7872 -0.3322
    1GOFLA C333  333   5.003   2.549   0.720 -0.8626  0.1454  1.1041
    1GOFLA C334  334   4.870   2.619   0.956 -0.1007 -0.2603  0.4645
    1GOFLA C335  335   4.959   2.715   0.895 -0.0238 -0.8448  0.2238
    1GOFLA C336  336   4.806   2.778   1.134 -0.2451 -0.1214  0.2609
    1GOFLA C337  337   4.884   2.880   1.071 -0.5057 -0.4755  0.2482
    1GOFLA C338  338   4.691   2.957   1.276  0.2705 -0.2469  0.4050
    1GOFLA C339  339   4.778   3.056   1.211 -0.2140  0.5859  0.1879
    1GOFLA C340  340   4.578   3.140   1.392  0.0916 -0.1921 -0.4424
    1GOFLA C341  341   4.650   3.240   1.318 -0.3741  0.6999  0.6816
    1GOFLA C342  342   4.451   3.332   1.489 -0.2845  0.0032 -0.3141
    1GOFLA C343  343   4.545   3.426   1.430  0.3985  0.1281  0.2985
    1GOFLA C344  344   4.311   3.515   1.560 -0.1390  0.0890 -0.1765
    1GOFLA C345  345   4.408   3.609   1.508  0.7052 -0.5057 -0.2323
    1GOFLA C346  346   4.185   3.712   1.643 -0.1167 -0.9848  0.0724
    1GOFLA C347  347   4.277   3.803   1.585  0.1490  0.0602 -0.2142
    1GOFLA C348  348   4.045   3.903   1.711  0.9524  0.0926  0.0209
    1GOFLA C349  349   4.148   3.993   1.665 -0.8315  0.5834  0.0402
    1GOFLA C350  350   5.406   1.683  -0.241 -0.3679 -0.2795  0.2988
    1GOFLA C351  351   5.448   1.787  -0.329  0.4322  0.0085  0.1344
    1GOFLA C352  352   5.334   1.850  -0.078 -0.1840 -0.1953 -0.6842
    1GOFLA C353  353   5.399   1.957  -0.154  0.4724  0.1871  0.0645
    1GOFLA C354  354   5.254   2.027   0.082 -0.3645  0.0002  0.3603
    1GOFLA C355  355   5.301   2.127  -0.007  0.2064  0.0831  0.4768
    1GOFLA C356  356   5.171   2.193   0.242  0.2800  0.2618 -0.1972
    1GOFLA C357  357   5.244   2.295   0.168  0.6255  0.7468  0.0477
    1GOFLA C358  358   5.109   2.355   0.409 -0.5796 -0.0380 -0.4399
    1GOFLA C359  359   5.183   2.458   0.344 -0.3175  0.5970 -0.1266
    1GOFLA C360  360   5.070   2.518   0.598  0.0437 -0.0502 -0.5001
    1GOFLA C361  361   5.143   2.612   0.527  0.2815 -0.2952  1.2307
    1GOFLA C362  362   5.007   2.683   0.766  0.4807 -0.1017 -0.1941
    1GOFLA C363  363   5.089   2.775   0.699 -0.7553 -0.0690 -0.0711
    1GOFLA C364  364   4.960   2.849   0.951  0.2381 -0.5244 -0.1523
    1GOFLA C365  365   5.042   2.948   0.885 -0.2302  0.4323 -1.1245
    1GOFLA C366  366   4.885   3.015   1.123 -0.3963 -0.8262 -0.2322
    1GOFLA C367  367   4.968   3.112   1.051  0.4816  0.2053 -0.4833
    1GOFLA C368  368   4.751   3.192   1.225  0.0575 -0.2299 -0.1279
    1GOFLA C369  369   4.816   3.289   1.145  0.2995  0.1429 -1.2437
    1GOFLA C370  370   4.636   3.381   1.335  0.0983  0.2429 -0.4226
    1GOFLA C371  371   4.712   3.476   1.261  0.7681  0.0310 -0.1042
    1GOFLA C372  372   4.512   3.566   1.429 -0.1880  0.3999 -0.0280
    1GOFLA C373  373   4.573   3.663   1.342 -0.0464 -0.3713 -0.4198
    1GOFLA C374  374   4.381   3.751   1.510 -0.0763  0.1348  0.4096
    1GOFLA C375  375   4.428   3.840   1.407 -1.1578 -0.0670  0.0263
    1GOFLA C376  376   4.253   3.942   1.589  0.0193 -0.7895  0.1484
    1GOFLA C377  377   4.315   4.035   1.503  0.1121  0.2060  0.2922
    1GOFLA C378  378   5.492   1.752  -0.459 -0.5202 -0.9030  0.6116
    1GOFLA C379  379   5.528   1.853  -0.552  0.2596 -0.3058 -0.4490
    1GOFLA C380  380   5.446   1.923  -0.287  0.2757 -0.3116 -0.2955
    1GOFLA C381  381   5.483   2.025  -0.377 -1.1436  0.3767 -0.2849
    1GOFLA C382  382   5.389   2.093  -0.115 -0.4946 -0.1169 -0.4701
    1GOFLA C383  383   5.447   2.193  -0.197 -0.1216 -0.2299  0.4187
    1GOFLA C384  384   5.312   2.260   0.051  0.0486  0.0484  0.3093
    1GOFLA C385  385   5.383   2.362  -0.022 -0.2578  0.4026 -0.1917
    1GOFLA C386  386   5.260   2.422   0.229 -0.4576  0.1663 -0.0136
    1GOFLA C387  387   5.324   2.522   0.153  0.2647  0.4562 -0.1611
    1GOFLA C388  388   5.208   2.583   0.405  0.3264  0.2400  0.2364
    1GOFLA C389  389   5.259   2.689   0.325  0.2098 -0.3698  0.2668
    1GOFLA C390  390   5.154   2.745   0.579 -0.4053  0.1915  0.5196
    1GOFLA C391  391   5.209   2.856   0.502 -0.1049 -0.1663 -0.0925
    1GOFLA C392  392   5.101   2.905   0.761  0.3104 -0.2570  0.3520
    1GOFLA C393  393   5.175   3.011   0.697  0.5931 -0.2899  0.3475
    1GOFLA C394  394   5.062   3.075   0.949  0.3449 -0.3937  0.0912
    1GOFLA C395  395   5.140   3.177   0.886 -0.1534  0.3637  0.7025
    1GOFLA C396  396   4.946   3.248   1.089  0.0564  0.5589  0.1422
    1GOFLA C397  397   5.019   3.343   1.004  0.7121  0.1571 -0.5481
    1GOFLA C398  398   4.796   3.423   1.166  0.1042 -0.1136  0.2302
    1GOFLA C399  399   4.871   3.513   1.086  0.3038 -0.3981 -0.0770
    1GOFLA C400  400   4.673   3.614   1.249 -0.1591  0.4295 -0.2741
    1GOFLA C401  401   4.720   3.690   1.136 -0.3754  0.4660  0.0744
    1GOFLA C402  402   4.520   3.790   1.312 -0.2986 -0.4361  0.2984
    1GOFLA C403  403   4.589   3.876   1.222  0.0632 -0.5594  0.4638
    1GOFLA C404  404   4.397   3.984   1.403 -0.0219 -0.5627 -0.0901
    1GOFLA C405  405   4.484   4.075   1.327  0.6788  0.5189 -0.7385
    1GOFLA C406  406   5.536   1.987  -0.504 -1.0018 -0.0516  0.2634
    1GOFLA C407  407   5.487   2.162  -0.332  0.3470  0.6936 -0.1908
    1GOFLA C408  408   5.444   2.329  -0.148 -0.9548 -0.0792  0.2205
    1GOFLA C409  409   5.382   2.492   0.024 -0.5305 -0.5108  0.7549
    1GOFLA C410  410   5.318   2.660   0.197 -0.5235  0.0493  0.1772
    1GOFLA C411  411   5.262   2.823   0.375  0.2361 -0.1972  0.7222
    1GOFLA C412  412   5.209   2.989   0.560  0.7914  0.1490 -0.1397
    1GOFLA C413  413   5.204   3.142   0.761 -0.5271  0.0624  0.2195
    1GOFLA C414  414   5.141   3.314   0.948  0.5045  0.5799  0.4760
    1GOFLA C415  415   5.005   3.475   1.046 -0.0027 -0.1186  0.1879
    1GOFLA C416  416   4.803   3.631   1.038 -0.7220 -0.1994 -0.1840
    1GOFLA C417  417   4.671   3.822   1.120 -0.2273  0.4471  0.2914
    1GOFLA C418  418   4.558   4.015   1.223 -0.3759 -0.1149 -0.3061
    1GOFLA H419  419   3.077   1.021   1.600 -0.3053  0.1485  0.5621
    1GOFLA H420  420   2.943   1.216   1.735  0.1455 -0.2653  2.5822
    1GOFLA H421  421   2.831   1.387   1.843  0.5421 -0.9462  0.6169
    1GOFLA H422  422   2.685   1.625   1.844  0.0703  0.1174  0.0393
    1GOFLA H423  423   2.567   1.772   1.994  2.2562 -1.4955  0.0717
    1GOFLA H424  424   2.415   1.969   2.021  0.6563 -0.8625  0.9536
    1GOFLA H425  425   2.292   2.150   2.195 -1.5690  2.2713  0.8388
    1GOFLA H426  426   2.140   2.358   2.168 -1.3404  0.8732  0.2895
    1GOFLA H427  427   2.011   2.527   2.299  1.2298 -2.1988  0.0151
    1GOFLA H428  428   1.869   2.727   2.327  1.1998 -0.4210  0.0238
    1GOFLA H429  429   1.714   2.940   2.332 -1.2250  2.3139  1.2356
    1GOFLA H430  430   1.583   3.117   2.198  1.6876 -1.9251 -2.0603
    1GOFLA H431  431   1.436   3.321   2.177 -0.2363 -0.2279  1.6327
    1GOFLA H432  432   3.253   0.961   1.450  0.8736 -0.3777 -0.4852
    1GOFLA H433  433   1.417   3.566   2.140 -0.3978 -2.0410 -2.7287
    1GOFLA H434  434   1.601   3.714   2.195  0.8088 -0.3878  0.5488
    1GOFLA H435  435   3.479   0.990   1.368  1.2733 -0.4039  2.1696
    1GOFLA H436  436   1.856   3.747   2.242  1.2724  0.2052  3.0414
    1GOFLA H437  437   3.704   1.024   1.292  1.0641  0.6481 -1.1833
    1GOFLA H438  438   2.070   3.760   2.334  1.2679 -0.0422 -1.0560
    1GOFLA H439  439   3.949   1.059   1.213 -1.1267  0.1596 -1.5203
    1GOFLA H440  440   2.318   3.792   2.382 -2.4877  0.1114 -1.0296
    1GOFLA H441  441   4.174   1.099   1.139 -0.0053  0.0579 -0.2432
    1GOFLA H442  442   2.581   3.841   2.277 -0.8839 -0.3309  0.9099
    1GOFLA H443  443   4.377   1.142   1.033  1.5995  1.1397 -1.5952
    1GOFLA H444  444   2.807   3.862   2.264 -1.5898  1.1973 -1.1439
    1GOFLA H445  445   4.496   1.237   0.819  2.8698  0.5918 -2.3877
    1GOFLA H446  446   3.055   3.900   2.192 -0.0769  0.5261  0.6194
    1GOFLA H447  447   4.710   1.256   0.680 -0.4791 -0.7515 -0.0130
    1GOFLA H448  448   3.284   3.932   2.112  0.7834  0.7998 -2.8519
    1GOFLA H449  449   4.801   1.336   0.458 -1.9883 -0.0810 -0.0132
    1GOFLA H450  450   3.469   3.970   1.979  0.6223  0.9080  2.2654
    1GOFLA H451  451   4.966   1.395   0.292 -0.3019 -1.0656  1.6119
    1GOFLA H452  452   3.681   3.997   1.871  0.6329  0.8398 -0.9919
    1GOFLA H453  453   5.116   1.463   0.094 -2.4220  0.8858 -0.1257
    1GOFLA H454  454   3.912   4.053   1.793  3.2261 -0.0354  0.5058
    1GOFLA H455  455   5.254   1.511  -0.092 -1.4464  0.3991 -0.2631
    1GOFLA H456  456   4.130   4.100   1.662  1.6363  1.0466  0.2600
    1GOFLA H457  457   5.453   1.586  -0.258 -0.0325 -0.1123  0.2606
    1GOFLA H458  458   4.271   4.135   1.505  0.1229  0.3199 -2.0597
    1GOFLA H459  459   5.507   1.645  -0.470  1.4444 -0.5620 -0.6265
    1GOFLA H460  460   5.611   1.828  -0.617 -1.0147 -0.1374 -2.2149
    1GOFLA H461  461   4.499   4.178   1.360 -0.9136  0.8156 -0.8465
    1GOFLA H462  462   5.568   2.052  -0.585  0.7734  0.6003  1.4545
    1GOFLA H463  463   5.448   2.233  -0.406 -1.0507  0.4343  0.2622
    1GOFLA H464  464   5.473   2.408  -0.217 -0.5316 -0.1792  0.2810
    1GOFLA H465  465   5.421   2.581  -0.024  0.3836 -0.9352  0.6886
    1GOFLA H466  466   5.349   2.742   0.133 -1.1105  2.0490  2.3250
    1GOFLA H467  467   5.336   2.889   0.330 -0.5818  0.4045  0.2238
    1GOFLA H468  468   5.181   3.067   0.490 -1.8539 -0.8679 -0.3276
    1GOFLA H469  469   5.264   3.220   0.713 -1.5118  0.6459 -0.0936
    1GOFLA H470  470   5.198   3.397   0.906  1.1513  0.8471  1.8317
    1GOFLA H471  471   5.096   3.525   1.078  1.1532 -1.1719 -1.2731
    1GOFLA H472  472   4.760   3.628   0.938  0.6446  0.2816 -0.8011
    1GOFLA H473  473   4.721   3.903   1.067  0.3471  1.4783  2.2733
    1GOFLA H474  474   4.627   4.079   1.170 -0.5940 -1.9512 -2.9598
    1GOFLA O475  475   4.310   2.642   1.649  0.1595 -0.1010 -0.4255
    1GOFLA O476  476   3.681   1.136   1.527 -0.6468  0.0021  0.4824
    1GOFLA H477  477   3.710   1.046   1.518 -1.4322 -0.1647 -0.7175
    1GOFLA O478  478   3.979   2.586   1.802 -0.3077  0.1874  0.5710
    1GOFLA O479  479   4.857   1.544   0.786  0.5051 -0.0222  0.5635
    1GOFLA H480  480   4.941   1.586   0.767 -0.6896  1.5838 -1.5810
    1GOFLA O481  481   3.504   3.293   2.087 -0.0246  0.4482  0.2361
    1GOFLA O482  482   5.245   2.586   0.621 -0.1986 -0.6520 -0.2476
    1GOFLA H483  483   5.268   2.493   0.622  1.9057 -0.2484  2.3305
    1GOFLA O484  484   3.069   2.789   2.192 -0.1293 -0.4185 -0.1278
    1GOFLA O485  485   5.209   1.999   0.428  0.2021  0.4868 -0.9032
    1GOFLA H486  486   5.259   1.917   0.421 -1.7778 -0.9807  0.7448
    1GOFLA O487  487   2.925   3.519   2.296 -0.0411 -0.6238  0.3054
    1GOFLA O488  488   3.492   3.662   2.129 -0.4386  0.4515 -0.6423
    1GOFLA H489  489   3.576   3.699   2.103  0.6883 -0.8064  1.0126
    1GOFLA O490  490   4.440   2.456   1.519 -0.1821  0.4453 -0.6463
    1GOFLA O491  491   4.466   1.480   1.247 -0.2572 -0.2772 -0.3337
    1GOFLA H492  492   4.515   1.555   1.281 -0.2003  0.2748 -1.5617
    1GOFLA O493  493   5.539   1.932  -0.178  0.4257  0.2427  0.0713
    1GOFLA O494  494   2.620   2.662   2.333 -0.4490 -0.1611 -0.1882
    1GOFLA H495  495   2.691   2.725   2.349 -0.6888  0.1615 -0.3919
    1GOFLA O496  496   5.037   3.169   1.160 -0.0713  0.0695  0.0196
    1GOFLA O497  497   3.783   3.626   2.008  0.1380 -0.4685  0.6945
    1GOFLA H498  498   3.870   3.587   2.014  0.1151 -1.7719 -3.9022
    1GOFLA O499  499   4.500   3.824   1.534  0.0966  0.4958  0.0224
    1GOFLA O500  500   4.613   1.325   1.047 -0.6141  0.6414 -0.5315
    1GOFLA H501  501   4.615   1.336   1.142  1.6966 -1.5793 -0.2046
    1GOFLA O502  502   3.114   3.106   2.223 -0.1795 -0.5587  0.5513
    1GOFLA O503  503   4.143   3.884   1.815 -0.0509  0.3625  0.2997
    1GOFLA H504  504   4.109   3.916   1.899 -2.2759 -0.1791 -0.3243
    1GOFLA O505  505   4.342   2.068   1.400 -0.1922 -0.2374  0.6885
    1GOFLA O506  506   5.372   1.828   0.102 -0.3455  0.6628  0.0649
    1GOFLA H507  507   5.421   1.891   0.155  2.1227 -1.4484  0.4961
    1GOFLA O508  508   3.103   2.016   2.075  0.9028  0.5006  0.0633
    1GOFLA O509  509   4.133   2.258   1.626 -0.7348 -0.6415  0.0897
    1GOFLA H510  510   4.150   2.164   1.635 -2.0600 -1.0466 -1.2297
    1GOFLA O511  511   4.058   3.280   1.886 -0.1430  0.0140 -0.4659
    1GOFLA O512  512   4.901   2.234   1.007  0.2955 -0.4855 -0.0662
    1GOFLA H513  513   4.964   2.303   0.984  1.1424 -0.6963  1.5023
    1GOFLA O514  514   4.738   2.545   1.268 -0.5892 -0.0505 -0.3480
    1GOFLA O515  515   4.512   3.200   1.609  0.0435 -0.6921  0.7395
    1GOFLA H516  516   4.551   3.116   1.634  0.4680 -0.0601  2.2817
    1GOFLA O517  517   4.122   1.807   1.504 -0.1826 -0.1637 -0.5785
    1GOFLA O518  518   2.757   2.177   2.216  0.2090  0.3336 -0.3510
    1GOFLA H519  519   2.844   2.175   2.256 -0.3630  0.8411  1.0037
    1GOFLA O520  520   3.389   1.634   1.857 -0.1208  0.1453 -0.0013
    1GOFLA O521  521   3.668   1.504   1.702 -0.1496 -0.0938  0.1477
    1GOFLA H522  522   3.668   1.408   1.696  0.6386 -0.0847 -0.0865
    1GOFLA O523  523   3.964   3.026   1.938  0.4737  0.0920  0.2812
    1GOFLA O524  524   3.752   1.791   1.753  0.7207 -0.0551  0.0479
    1GOFLA H525  525   3.787   1.706   1.782 -0.4679  0.0643  2.0287
    1GOFLA O526  526   3.405   1.163   1.603  0.1220 -0.1310 -0.0757
    1GOFLA O527  527   4.936   3.624   1.152  0.3472 -0.4692  0.0266
    1GOFLA H528  528   4.913   3.623   1.245 -2.1652  1.2528 -0.4952
    1GOFLA O529  529   5.048   1.663   0.524 -0.1261 -0.0178 -0.2581
    1GOFLA O530  530   2.812   1.748   2.095  0.5078 -0.0512  0.5234
    1GOFLA H531  531   2.755   1.778   2.166 -2.2082 -0.8261 -1.1796
    1GOFLA O532  532   3.122   2.371   2.128 -0.0271  0.2668  0.3822
    1GOFLA O533  533   4.822   3.174   1.351  0.0330 -0.2308  0.4281
    1GOFLA H534  534   4.905   3.130   1.330 -1.2764 -2.2446 -0.9000
    1GOFLA O535  535   5.169   2.876   0.880 -0.0044  0.3296 -0.0565
    1GOFLA O536  536   5.483   2.349   0.084  0.4408 -0.2675 -0.3570
    1GOFLA H537  537   5.564   2.398   0.066  0.0161  0.2138 -0.9849
    1GOFLA O538  538   4.777   2.869   1.353  0.4463  0.1854 -0.6729
    1GOFLA O539  539   2.505   3.180   2.409  0.4225  0.4935  0.0406
    1GOFLA H540  540   2.427   3.203   2.460 -1.7985 -0.2324 -2.7538
    1GOFLA O541  541   3.517   2.510   1.998 -0.3704 -0.7429 -0.2944
    1GOFLA O542  542   2.131   3.263   2.418  0.2349 -0.3853  0.5840
    1GOFLA H543  543   2.194   3.205   2.461  1.0732 -0.3497 -0.5607
    1GOFLA O544  544   2.425   3.449   2.412  0.0630  0.4625 -0.2390
    1GOFLA O545  545   2.618   2.325   2.290  0.3448 -0.7386 -0.1913
    1GOFLA H546  546   2.686   2.259   2.301 -0.3203 -1.2624  0.7690
    1GOFLA O547  547   3.593   2.951   2.041 -0.0142  0.0873  0.1879
    1GOFLA O548  548   4.312   1.220   1.308  0.1180 -0.0253 -0.4908
    1GOFLA H549  549   4.330   1.280   1.381  0.0873 -1.0675  0.3886
    1GOFLA O550  550   3.859   2.351   1.797 -0.3775 -0.6338  0.2945
    1GOFLA O551  551   5.589   2.218  -0.188 -0.3401  0.5508  0.5375
    1GOFLA H552  552   5.612   2.160  -0.115 -0.7584  1.1949  1.1965
    2CURC    C1  553   3.547   1.655   2.169 -0.0126 -0.4538 -0.6944
    2CURC    O2  554   3.508   1.784   2.227 -0.3587  0.0645 -0.2851
    2CURC    C3  555   3.562   1.906   2.200 -0.0064  0.0325 -0.5555
    2CURC    C4  556   3.690   1.934   2.152 -0.2116  0.1464 -0.7762
    2CURC    C5  557   3.750   2.063   2.158  0.1989  0.0253  0.5352
    2CURC    C6  558   3.883   2.084   2.097  0.5929  0.0458  0.7035
    2CURC    C7  559   3.949   2.200   2.080  0.6028  0.6347  0.7293
    2CURC    C8  560   4.067   2.208   1.990 -0.3494  0.5916  0.2515
    2CURC    O9  561   4.103   2.116   1.918 -0.3995 -0.1951 -0.3017
    2CURC   C10  562   4.178   2.309   2.022 -0.2814  0.1063  0.5019
    2CURC   C11  563   4.136   2.459   2.034  0.4186  0.4867 -0.4533
    2CURC   O12  564   4.034   2.496   2.093  0.0708  0.1039 -0.5797
    2CURC   C13  565   4.235   2.556   1.980 -0.6348  0.4159 -0.3686
    2CURC   C14  566   4.235   2.684   2.016  0.2214  0.0266  0.2092
    2CURC   C15  567   4.328   2.794   1.990 -0.1668 -0.4965  0.1270
    2CURC   C16  568   4.289   2.930   2.020 -0.5051 -0.0476  0.0840
    2CURC   C17  569   4.359   3.046   1.977  0.1116  0.1891 -1.1531
    2CURC   C18  570   4.477   3.020   1.899  0.5413  0.1592  0.3232
    2CURC   O19  571   4.575   3.109   1.863  0.1671 -0.0012 -0.0100
    2CURC   C20  572   4.509   2.889   1.863  0.3564  0.8202  0.7348
    2CURC   O21  573   4.620   2.887   1.776 -0.6027 -0.3232 -0.3667
    2CURC   C22  574   4.705   2.773   1.764  0.2901 -0.8448 -0.1440
    2CURC   C23  575   4.437   2.776   1.907 -0.9715  0.1038  0.3126
    2CURC   C24  576   3.656   2.175   2.174 -0.1675 -0.0323  0.3043
    2CURC   C25  577   3.520   2.151   2.198  0.9511  0.5948  0.2756
    2CURC   C26  578   3.470   2.011   2.217  0.3678 -0.5979 -0.0398
    2CURC   O27  579   3.348   1.976   2.261 -0.0909 -0.1632  0.3710
    2CURC   H28  580   3.653   1.628   2.181 -0.1596 -1.2620 -1.1408
    2CURC   H29  581   3.488   1.577   2.220 -0.9075  1.0569  0.6872
    2CURC   H30  582   3.532   1.664   2.061  1.9955 -1.9362 -1.1552
    2CURC   H31  583   3.728   1.865   2.077 -1.8445 -1.5382 -0.1519
    2CURC   H32  584   3.944   1.993   2.098  0.1185 -0.3428 -1.1105
    2CURC   H33  585   3.950   2.272   2.161  2.4235  2.3169 -0.7012
    2CURC   H34  586   4.245   2.300   1.936 -1.6265 -1.2653 -0.4649
    2CURC   H35  587   4.229   2.268   2.110  1.4884  0.1806 -0.4393
    2CURC   H36  588   4.295   2.523   1.895  1.2265  2.3091  0.1167
    2CURC   H37  589   4.188   2.692   2.114 -2.3893 -0.3782 -0.9183
    2CURC   H38  590   4.236   2.946   2.114  0.3946  2.2516  0.2797
    2CURC   H39  591   4.303   3.139   1.972 -0.5121 -0.2260 -2.1296
    2CURC   H40  592   4.572   3.186   1.923 -0.3966 -1.9282  2.5929
    2CURC   H41  593   4.768   2.794   1.677 -0.0036  2.4760  0.2852
    2CURC   H42  594   4.764   2.767   1.856 -2.0729  0.7532  1.6427
    2CURC   H43  595   4.653   2.677   1.751  2.5180 -2.8259  3.6095
    2CURC   H44  596   4.445   2.677   1.863 -2.5613 -0.9698  2.2693
    2CURC   H45  597   3.699   2.266   2.214  2.8485 -0.8106 -0.8981
    2CURC   H46  598   3.456   2.218   2.141  0.8986 -1.7761 -2.7931
    2CURC   H47  599   3.286   2.051   2.262 -1.3501 -1.1719  1.4417
    3SOL     OW  600   2.634   4.189   2.988  0.3111 -0.4802  0.2851
    3SOL    HW1  601   2.543   4.168   3.011  0.6535 -2.2209  0.1853
    3SOL    HW2  602   2.648   4.148   2.903  1.3293 -0.6551  0.5196
    4SOL     OW  603   6.013   2.091   2.526 -0.0435 -0.2694 -0.1222
    4SOL    HW1  604   5.954   2.039   2.580 -2.3906  2.7681  0.5663
    4SOL    HW2  605   5.979   2.083   2.437 -2.3849  2.1877  0.3857
    5SOL     OW  606   7.236   4.565   0.192  0.2134 -0.5311  0.2269
    5SOL    HW1  607   7.227   4.547   0.286  2.2854 -1.0385  0.3870
    5SOL    HW2  608   7.173   4.635   0.174 -0.2879 -0.4944  1.9717
    6SOL     OW  609   1.501   3.418   1.384 -0.0714  0.2679  0.2152
    6SOL    HW1  610   1.409   3.404   1.358 -0.5200  0.3348  1.6869
    6SOL    HW2  611   1.539   3.330   1.385 -0.0944  0.2422 -0.4272
    7SOL     OW  612   1.293   3.146   1.127  0.1800 -0.5679 -0.1799
    7SOL    HW1  613   1.245   3.065   1.112 -1.7678  0.6703 -1.1217
    7SOL    HW2  614   1.341   3.162   1.046  2.1953 -1.7393  0.7165
    8SOL     OW  615   4.197   5.230   0.265 -0.8049  0.0842 -0.1610
    8SOL    HW1  616   4.272   5.190   0.220 -0.9799  0.1206 -0.4882
    8SOL    HW2  617   4.205   5.323   0.246 -0.1468  0.2761  0.9694
    9SOL     OW  618   2.035   4.756   0.436  0.1119  0.9191  0.3207
    9SOL    HW1  619   2.112   4.716   0.396 -0.3473 -0.2381  0.5393
    9SOL    HW2  620   2.069   4.823   0.495  0.9466  0.4813  0.3452
   10SOL     OW  621   5.917   3.006   1.090  1.1016  0.0144  0.3486
   10SOL    HW1  622   5.879   3.041   1.009  0.4930 -1.7759 -0.1913
   10SOL    HW2  623   5.997   3.057   1.103 -0.4944  2.6974  0.5392
   11SOL     OW  624   5.747   1.388   2.083 -0.0484 -0.1092 -0.4555
   11SOL    HW1  625   5.762   1.412   1.992  1.4920  0.4981 -0.0781
   11SOL    HW2  626   5.737   1.472   2.128  2.0173 -0.2218  0.3476
   12SOL     OW  627   3.540   4.141   3.253 -0.3353  0.1065 -0.4420
   12SOL    HW1  628   3.625   4.097   3.262 -0.7783 -0.5687  0.6244
   12SOL    HW2  629   3.489   4.111   3.328 -1.1393  1.3939 -0.4377
   13SOL     OW  630   2.208   2.235   3.223 -0.6967  0.4962  0.0271
   13SOL    HW1  631   2.176   2.320   3.192 -1.6432  0.2833  0.3807
   13SOL    HW2  632   2.268   2.257   3.295  0.0172  0.9030 -0.6717
   14SOL     OW  633   3.806   3.483   1.281  0.0037  0.1948 -0.2967
   14SOL    HW1  634   3.810   3.452   1.190  0.9393  1.3450 -0.6756
   14SOL    HW2  635   3.894   3.471   1.314  0.2444  1.8337 -0.2729
   15SOL     OW  636   6.212   1.135   2.734  0.5082 -0.2004 -0.0919
   15SOL    HW1  637   6.152   1.072   2.773 -0.9520 -0.0110 -1.8908
   15SOL    HW2  638   6.200   1.215   2.785 -0.6353 -0.2232 -0.3098
   16SOL     OW  639   2.105   0.791   0.361  0.3011  0.0543  0.2714
   16SOL    HW1  640   2.023   0.821   0.400 -0.1256 -0.1647 -0.4286
   16SOL    HW2  641   2.156   0.872   0.348  0.0456  0.2330  0.3655
   17SOL     OW  642   0.135   4.242   1.352  0.1087 -0.1919  0.0489
   17SOL    HW1  643   0.058   4.194   1.383 -0.1656 -0.8600 -1.5469
   17SOL    HW2  644   0.195   4.242   1.427 -1.9298  1.5584  1.8109
   18SOL     OW  645   5.815   0.280   1.141  0.5834  0.5050 -0.0980
   18SOL    HW1  646   5.760   0.324   1.077 -0.0167  1.1636  0.8411
   18SOL    HW2  647   5.888   0.339   1.155 -0.0493  1.0684  0.9131
   19SOL     OW  648   3.000   5.224   2.225  0.0288 -0.0387  0.5607
   19SOL    HW1  649   2.955   5.149   2.185  1.0391 -0.1825 -0.3603
   19SOL    HW2  650   2.952   5.300   2.192  0.7553 -0.1619 -0.8552
   20SOL     OW  651   0.153   4.380   1.964 -0.1672 -0.3559  0.3778
   20SOL    HW1  652   0.149   4.474   1.949  0.9353 -0.2986  0.3469
   20SOL    HW2  653   0.179   4.371   2.055  1.1319 -0.5911  0.0093
   21SOL     OW  654   5.659   5.019   1.666  0.2919  0.1195 -0.1846
   21SOL    HW1  655   5.687   5.022   1.757  1.7790  1.1359 -0.6312
   21SOL    HW2  656   5.605   4.940   1.660  1.5468 -0.9161  1.2065
   22SOL     OW  657   5.197   1.011   1.688  0.0746  0.1127  0.4534
   22SOL    HW1  658   5.201   0.918   1.712  0.2992  0.2427  0.9441
   22SOL    HW2  659   5.189   1.057   1.771  2.5737  0.6796  0.4740
   23SOL     OW  660   0.046   1.448   2.069 -0.3355 -0.5000 -0.2056
   23SOL    HW1  661   0.096   1.500   2.007  0.3500 -2.1624 -1.1248
   23SOL    HW2  662   0.082   1.471   2.155  0.1761  0.2676 -0.6201
   24SOL     OW  663   6.805   0.586   2.245  0.3644 -0.3808 -0.0239
   24SOL    HW1  664   6.820   0.545   2.160  1.8337 -0.0800  0.0711
   24SOL    HW2  665   6.807   0.513   2.307 -0.4591 -0.5689 -0.2051
   25SOL     OW  666   0.695   0.670   2.437 -0.0345 -0.0695  0.3542
   25SOL    HW1  667   0.668   0.580   2.417  0.5111 -0.0092 -0.7639
   25SOL    HW2  668   0.618   0.710   2.477 -0.7270 -0.6656 -0.3424
   26SOL     OW  669   6.435   2.978   1.712  0.4254 -0.1278  0.0945
   26SOL    HW1  670   6.493   2.963   1.638  0.5116  2.5973 -0.4939
   26SOL    HW2  671   6.485   3.034   1.771 -0.8331  0.5861  0.5436
   27SOL     OW  672   0.998   2.640   3.139 -0.1115 -0.0821  0.8179
   27SOL    HW1  673   0.907   2.610   3.137  0.0146 -0.5076  1.4424
   27SOL    HW2  674   1.031   2.622   3.051 -0.8452  0.7710  0.3451
   28SOL     OW  675   2.812   1.869   0.637 -0.2937  0.3624 -0.0889
   28SOL    HW1  676   2.851   1.954   0.617  0.3047  0.7228  2.2609
   28SOL    HW2  677   2.760   1.886   0.715  0.4467 -1.5759  0.8681
   29SOL     OW  678   2.264   0.627   2.261 -0.4713 -0.2260  0.0847
   29SOL    HW1  679   2.247   0.707   2.211  0.9872  0.6284  0.8920
   29SOL    HW2  680   2.180   0.606   2.301 -0.7553  1.2226  0.3086
   30SOL     OW  681   6.688   0.991   0.652  0.6034 -0.6022  0.0235
   30SOL    HW1  682   6.691   0.927   0.723 -2.0904 -1.6160 -0.6469
   30SOL    HW2  683   6.654   0.941   0.577 -1.0996  1.4695 -0.6631
   31SOL     OW  684   4.538   1.812   1.708 -0.2465 -0.1069 -0.0624
   31SOL    HW1  685   4.617   1.853   1.743 -0.2604  0.5308 -0.7476
   31SOL    HW2  686   4.475   1.884   1.702 -0.9590 -0.6587  0.6988
   32SOL     OW  687   6.868   1.821   2.842  0.2571  0.2719  0.7078
   32SOL    HW1  688   6.854   1.900   2.789  0.8881 -0.6341 -0.9061
   32SOL    HW2  689   6.932   1.847   2.908 -2.2201  2.0609  2.6072
   33SOL     OW  690   3.813   2.412   0.736  0.1333 -0.1903 -0.3574
   33SOL    HW1  691   3.801   2.474   0.665  1.4627 -0.5433 -0.9185
   33SOL    HW2  692   3.853   2.463   0.807  1.2157 -0.3673 -0.8148
   34SOL     OW  693   6.918   5.102   2.742  0.1583 -0.3538 -0.2302
   34SOL    HW1  694   6.965   5.087   2.824  2.0828 -0.1411 -1.2435
   34SOL    HW2  695   6.964   5.048   2.678 -1.5322 -0.7858 -1.1306
   35SOL     OW  696   0.132   4.649   3.354 -0.3221  0.6109 -0.3431
   35SOL    HW1  697   0.213   4.691   3.324 -1.2522  1.5781 -1.5855
   35SOL    HW2  698   0.077   4.722   3.383 -0.6385 -0.0702  0.8470
   36SOL     OW  699   3.935   2.323   1.149 -0.3032  0.0877  0.5584
   36SOL    HW1  700   4.010   2.273   1.116 -0.3592  1.0312 -1.0851
   36SOL    HW2  701   3.877   2.256   1.186  0.3585 -0.8947 -0.1209
   37SOL     OW  702   4.282   5.090   0.801  0.3573  0.0211  0.3190
   37SOL    HW1  703   4.341   5.160   0.775  2.4459 -1.6160  0.3935
   37SOL    HW2  704   4.195   5.121   0.775  1.5207  1.3616 -2.3663
   38SOL     OW  705   0.741   4.015   2.508 -0.0890 -0.2629  0.0059
   38SOL    HW1  706   0.720   3.992   2.418 -2.1118  0.0619  0.3515
   38SOL    HW2  707   0.773   4.105   2.503 -0.4980 -0.1361 -0.3623
   39SOL     OW  708   3.417   3.904   2.366  0.8683 -0.0914  0.1402
   39SOL    HW1  709   3.489   3.967   2.364 -1.0128  2.2370  0.5441
   39SOL    HW2  710   3.342   3.953   2.332 -0.2257 -2.9058 -1.8391
   40SOL     OW  711   5.897   4.112   0.365 -0.2222  0.3167  0.0648
   40SOL    HW1  712   5.887   4.205   0.345  0.3546  0.1028 -1.3182
   40SOL    HW2  713   5.828   4.069   0.315  0.7159 -0.1568 -0.8711
   41SOL     OW  714   0.527   3.510   0.680 -0.3797  0.2074 -0.3018
   41SOL    HW1  715   0.466   3.492   0.751 -0.8225  0.2664 -0.6578
   41SOL    HW2  716   0.605   3.546   0.723 -0.0765 -1.0627  0.2847
   42SOL     OW  717   0.391   5.135   0.052 -0.7585 -0.2904 -0.2164
   42SOL    HW1  718   0.335   5.070   0.010 -0.4310 -0.2520 -0.7124
   42SOL    HW2  719   0.332   5.208   0.071 -0.7164  0.0825 -1.4694
   43SOL     OW  720   7.136   3.062   1.982 -0.3510  0.2561  0.0250
   43SOL    HW1  721   7.179   2.976   1.986 -2.5163 -0.8890  0.5470
   43SOL    HW2  722   7.042   3.041   1.974 -1.1841  2.5299  2.4220
   44SOL     OW  723   0.094   0.086   2.791 -0.5587 -0.6524 -0.0468
   44SOL    HW1  724   0.026   0.092   2.724  0.1098 -0.0421 -0.6816
   44SOL    HW2  725   0.046   0.076   2.873 -1.3970 -0.9502 -0.5630
   45SOL     OW  726   4.155   0.001   1.057  0.5972 -0.6745  0.0547
   45SOL    HW1  727   4.246  -0.011   1.085  0.6511 -0.9435 -0.2426
   45SOL    HW2  728   4.157   0.082   1.005  0.6931 -0.7675 -0.0858
   46SOL     OW  729   1.618   0.359   1.064 -0.3457 -0.4517 -0.0712
   46SOL    HW1  730   1.550   0.297   1.088 -1.6363  1.1232  0.4604
   46SOL    HW2  731   1.700   0.311   1.077 -1.2753 -1.8375  0.8872
   47SOL     OW  732   0.370   3.028   2.302 -0.3564  0.0505  0.5656
   47SOL    HW1  733   0.453   2.981   2.304 -0.8282 -0.8876 -0.6663
   47SOL    HW2  734   0.375   3.082   2.223 -0.8828  0.0736  0.5469
   48SOL     OW  735   0.975   2.683   2.140 -0.1346  0.2736  0.1634
   48SOL    HW1  736   1.018   2.747   2.197 -0.0471  0.0824  0.3135
   48SOL    HW2  737   1.042   2.657   2.078 -0.6437  1.6324 -1.0268
   49SOL     OW  738   6.264   4.095   1.209 -0.5243 -0.1090  0.3189
   49SOL    HW1  739   6.213   4.053   1.140 -1.0418  0.7405  0.1664
   49SOL    HW2  740   6.241   4.046   1.289  0.4874 -1.4412 -0.1671
   50SOL     OW  741   2.108   3.488   1.131 -0.2599  0.0450 -0.4023
   50SOL    HW1  742   2.085   3.563   1.186 -0.0825  0.0560 -0.3450
   50SOL    HW2  743   2.149   3.526   1.054  0.1742 -0.0136 -0.2030
   51SOL     OW  744   6.508   4.790   1.218 -0.6247  0.3315 -0.4495
   51SOL    HW1  745   6.515   4.809   1.311  0.2275  0.6012 -0.5561
   51SOL    HW2  746   6.488   4.874   1.177  2.0719  0.8935 -0.8074
   52SOL     OW  747   1.473   1.077   3.380  0.1541  0.5966 -0.0884
   52SOL    HW1  748   1.416   1.116   3.314 -2.0705 -1.3667  0.4842
   52SOL    HW2  749   1.525   1.013   3.331 -1.8076 -1.1811 -0.0203
   53SOL     OW  750   6.823   5.219   2.478 -0.1897 -0.3815  0.1953
   53SOL    HW1  751   6.875   5.193   2.555 -0.7632  0.9522  1.0645
   53SOL    HW2  752   6.760   5.282   2.512  0.6734  1.5992 -1.6636
   54SOL     OW  753   0.150   0.586   2.496 -0.1106  0.1444 -0.1100
   54SOL    HW1  754   0.219   0.611   2.558  1.0906 -0.2094 -1.2546
   54SOL    HW2  755   0.081   0.651   2.509  0.8566  1.1128  0.3823
   55SOL     OW  756   6.071   5.009   0.250 -0.7029 -0.3749  0.5130
   55SOL    HW1  757   6.030   4.937   0.202  0.1763 -1.5647  1.4827
   55SOL    HW2  758   6.062   4.985   0.342 -0.9986  1.1134  0.8985
   56SOL     OW  759   0.681   2.557   0.756  0.2293 -0.7160  0.3281
   56SOL    HW1  760   0.645   2.470   0.738  0.6384 -0.8665  0.2104
   56SOL    HW2  761   0.607   2.608   0.787  0.3518 -1.6505  2.3328
   57SOL     OW  762   3.081   1.448   0.175 -0.7807  0.4046  0.2044
   57SOL    HW1  763   3.045   1.387   0.110 -1.0917 -0.3513  1.0731
   57SOL    HW2  764   3.006   1.474   0.228 -0.3979  0.4458  0.7241
   58SOL     OW  765   7.115   2.398   2.002  0.1346 -0.4016 -0.0021
   58SOL    HW1  766   7.064   2.425   2.078  0.5369  0.6117 -0.0779
   58SOL    HW2  767   7.206   2.409   2.029  0.2862 -0.4720 -0.4791
   59SOL     OW  768   1.820   2.318   1.319 -0.0165  0.1487 -0.3530
   59SOL    HW1  769   1.901   2.285   1.280 -0.6134 -3.1917  0.8903
   59SOL    HW2  770   1.849   2.378   1.388  1.2177  1.6254 -2.1008
   60SOL     OW  771   5.592   3.217   2.578  0.6805  0.3358 -0.0355
   60SOL    HW1  772   5.587   3.230   2.673 -0.7789  0.4465 -0.1002
   60SOL    HW2  773   5.675   3.173   2.564  0.6255 -0.2673  1.3772
   61SOL     OW  774   6.981   3.120   3.325  0.1439 -0.2979 -0.2310
   61SOL    HW1  775   6.921   3.101   3.253  1.0558  0.0203 -1.1030
   61SOL    HW2  776   6.962   3.054   3.391  0.5972 -1.7931 -1.5562
   62SOL     OW  777   3.923   0.243   2.591  0.0287 -0.1923  0.2087
   62SOL    HW1  778   4.013   0.237   2.560  0.0242  1.2707 -0.1306
   62SOL    HW2  779   3.878   0.170   2.548  1.0910 -1.1394  0.6268
   63SOL     OW  780   6.720   0.571   3.452  0.0101 -0.1417 -0.2021
   63SOL    HW1  781   6.757   0.658   3.442  1.2109 -0.7785 -1.6071
   63SOL    HW2  782   6.627   0.581   3.430  0.3205  0.6303 -1.2145
   64SOL     OW  783   0.848   2.143   0.166  0.2807 -0.0388  0.6766
   64SOL    HW1  784   0.834   2.237   0.156 -2.4524 -0.4123  0.1933
   64SOL    HW2  785   0.784   2.116   0.232  0.7643 -1.6338  0.5357
   65SOL     OW  786   7.120   1.870   2.340 -0.0666  0.0626 -0.5294
   65SOL    HW1  787   7.185   1.807   2.370 -0.4341  0.1719  0.5315
   65SOL    HW2  788   7.090   1.836   2.256 -0.0372 -1.0039 -0.1179
   66SOL     OW  789   0.894   2.615   0.073  0.5107  0.5377 -0.8408
   66SOL    HW1  790   0.940   2.689   0.034 -0.1865  1.2406 -0.3746
   66SOL    HW2  791   0.864   2.648   0.158 -1.0558  0.2049 -1.2270
   67SOL     OW  792   1.295   5.220   1.966  0.1099  0.1585  0.3725
   67SOL    HW1  793   1.276   5.215   2.059  1.5542 -0.6785  0.6522
   67SOL    HW2  794   1.326   5.133   1.942  0.3767  0.5347 -0.7446
   68SOL     OW  795   3.747   2.580   0.538 -0.4525 -0.0181 -0.1367
   68SOL    HW1  796   3.701   2.557   0.458  1.6592  0.1037 -1.4612
   68SOL    HW2  797   3.792   2.662   0.517  1.5631 -0.8851  0.5305
   69SOL     OW  798   6.896   2.992   0.074 -0.1915 -0.1546  0.2093
   69SOL    HW1  799   6.832   2.940   0.024 -0.7944  2.0020 -1.4124
   69SOL    HW2  800   6.849   3.020   0.152 -0.1577 -1.2497  0.6315
   70SOL     OW  801   2.691   2.437   2.639  0.1394  0.0951 -0.1409
   70SOL    HW1  802   2.702   2.349   2.603  0.9965  0.7042 -1.4573
   70SOL    HW2  803   2.764   2.487   2.603  1.1118  0.7897  2.5035
   71SOL     OW  804   5.180   0.352   2.745  0.3729 -0.1360  0.0199
   71SOL    HW1  805   5.193   0.432   2.796 -0.2793  0.0827 -0.1334
   71SOL    HW2  806   5.209   0.376   2.657  0.1313 -0.0465 -0.0375
   72SOL     OW  807   0.428   2.918   3.004  0.7843 -0.1231  0.4118
   72SOL    HW1  808   0.448   2.884   3.091 -1.8753  0.8770  1.5121
   72SOL    HW2  809   0.449   3.011   3.009 -0.1789  0.1060  0.2706
   73SOL     OW  810   6.308   1.377   0.746 -0.6417  0.0584  0.0388
   73SOL    HW1  811   6.260   1.424   0.814 -1.7512  1.0679 -1.3716
   73SOL    HW2  812   6.396   1.416   0.748 -1.0264  0.9586  0.0827
   74SOL     OW  813   0.161   1.956   2.387 -0.1101 -0.4331 -0.1857
   74SOL    HW1  814   0.139   1.869   2.352  0.6769 -1.2151  1.2007
   74SOL    HW2  815   0.180   1.941   2.479  1.0495  1.0506 -0.1445
   75SOL     OW  816   5.147   3.757   0.599 -0.1598  0.3700 -0.1559
   75SOL    HW1  817   5.213   3.813   0.559  1.8885 -1.1257  0.9700
   75SOL    HW2  818   5.142   3.785   0.690 -1.1824  0.5338 -0.2446
   76SOL     OW  819   6.762   0.391   2.058 -0.2894  0.5353  0.1938
   76SOL    HW1  820   6.672   0.362   2.070 -0.3676  1.1342  1.1709
   76SOL    HW2  821   6.773   0.398   1.963 -0.9449 -0.5098  0.0301
   77SOL     OW  822   0.018   1.277   3.035  0.2578  0.6143 -0.4072
   77SOL    HW1  823  -0.001   1.361   2.993 -1.4125  0.2960 -0.3857
   77SOL    HW2  824  -0.001   1.291   3.128  0.2156  0.2982 -0.3655
   78SOL     OW  825   4.700   3.548   3.027  0.0358  0.0332  0.4258
   78SOL    HW1  826   4.769   3.582   2.970 -0.6973  0.6487 -0.1082
   78SOL    HW2  827   4.742   3.476   3.075  0.6097 -0.6093 -0.9920
   79SOL     OW  828   0.778   4.997   2.653 -0.1727 -0.7338 -0.0689
   79SOL    HW1  829   0.829   5.076   2.633  0.0562 -0.8341  0.1109
   79SOL    HW2  830   0.735   4.974   2.570  0.6466 -1.0642 -0.4069
   80SOL     OW  831   4.123   0.326   1.818 -0.3072  0.2732  0.2767
   80SOL    HW1  832   4.153   0.236   1.804 -0.9086  0.2931 -1.3102
   80SOL    HW2  833   4.151   0.374   1.740 -0.9935  1.1900  0.5724
   81SOL     OW  834   2.502   2.218   3.076 -0.1437 -0.3972 -0.0991
   81SOL    HW1  835   2.461   2.142   3.116  1.3009 -1.3385 -0.3264
   81SOL    HW2  836   2.589   2.223   3.116 -0.5864  1.8087  0.7186
   82SOL     OW  837   4.019   2.109   0.131 -0.0499 -0.5957 -0.1363
   82SOL    HW1  838   3.927   2.096   0.107  0.2663  0.5407 -2.1878
   82SOL    HW2  839   4.018   2.188   0.186 -0.4684 -1.6908  1.5196
   83SOL     OW  840   5.318   2.569   2.426  0.0613 -0.3840 -0.1340
   83SOL    HW1  841   5.402   2.543   2.462 -0.1201  0.7577  1.1965
   83SOL    HW2  842   5.338   2.598   2.337  1.0269 -0.4022  0.0650
   84SOL     OW  843   2.141   3.196   0.555  0.2669 -0.0588 -0.3738
   84SOL    HW1  844   2.112   3.118   0.508  0.0880  0.4199 -1.0644
   84SOL    HW2  845   2.076   3.263   0.536  1.4720  0.8597 -1.4684
   85SOL     OW  846   6.193   4.422   1.862  0.3635 -0.5967  0.1824
   85SOL    HW1  847   6.264   4.413   1.926 -0.5142 -0.6693  1.1724
   85SOL    HW2  848   6.228   4.383   1.782  1.9784  0.7137  0.2053
   86SOL     OW  849   1.017   2.444   0.704 -0.4129 -0.9008  0.0675
   86SOL    HW1  850   0.942   2.399   0.665 -1.6510 -0.4468  1.8122
   86SOL    HW2  851   1.004   2.536   0.682  0.1912 -0.9449 -0.4858
   87SOL     OW  852   2.594   0.027   1.756 -0.5336  0.3651 -0.1951
   87SOL    HW1  853   2.598   0.022   1.661  2.1894  3.2501 -0.4095
   87SOL    HW2  854   2.547   0.108   1.774  0.2934  0.6442  0.8417
   88SOL     OW  855   0.373   4.453   0.746 -0.3403 -0.4605 -0.6163
   88SOL    HW1  856   0.316   4.530   0.751 -1.7574 -1.5185  0.2221
   88SOL    HW2  857   0.429   4.459   0.823 -0.8121 -0.5456 -0.2670
   89SOL     OW  858   3.259   3.415   3.343  0.1316  0.4814  0.8104
   89SOL    HW1  859   3.338   3.408   3.396  0.2058  0.2330  0.6733
   89SOL    HW2  860   3.189   3.434   3.405  0.1930  0.0467  1.0166
   90SOL     OW  861   1.233   1.136   1.887  0.3620 -0.3330  0.3328
   90SOL    HW1  862   1.200   1.121   1.975  0.4040  0.2898  0.4605
   90SOL    HW2  863   1.231   1.050   1.845 -2.4003 -0.1966 -0.0208
   91SOL     OW  864   0.079   2.362   0.793 -0.5495  0.5113 -0.0482
   91SOL    HW1  865   0.079   2.296   0.862  1.0118  2.0454  1.5477
   91SOL    HW2  866   0.014   2.332   0.731  0.7376 -3.0130  0.0746
   92SOL     OW  867   4.913   2.193   2.809  0.3633  0.5797  0.1478
   92SOL    HW1  868   4.945   2.273   2.767  0.1188  1.4858  1.6203
   92SOL    HW2  869   4.986   2.164   2.864  0.6205 -0.4909 -0.7434
   93SOL     OW  870   1.788   1.621   2.728  0.1334 -0.2902 -0.3522
   93SOL    HW1  871   1.805   1.565   2.651  1.1510  0.1668 -0.4715
   93SOL    HW2  872   1.718   1.575   2.775  0.0820 -1.0192 -1.1051
   94SOL     OW  873   3.652   1.707   2.462  0.5319 -0.4884 -0.0585
   94SOL    HW1  874   3.556   1.717   2.460  0.5392 -0.3752  0.1370
   94SOL    HW2  875   3.686   1.796   2.457  0.6083 -0.4510  0.8701
   95SOL     OW  876   1.072   0.307   3.261 -0.5019 -0.0430  0.3220
   95SOL    HW1  877   1.048   0.334   3.349 -0.0701  2.1638 -0.1816
   95SOL    HW2  878   1.165   0.327   3.254 -0.4388 -0.5563 -0.5119
   96SOL     OW  879   6.357   3.593   3.368  0.7343 -0.5547 -0.7364
   96SOL    HW1  880   6.426   3.599   3.434 -0.8240 -0.1498  0.9221
   96SOL    HW2  881   6.324   3.503   3.375 -1.4378  0.3199  1.2144
   97SOL     OW  882   4.862   2.426   2.606 -0.5830 -0.4576 -0.9210
   97SOL    HW1  883   4.808   2.395   2.534 -0.0206 -1.3199 -0.9863
   97SOL    HW2  884   4.825   2.512   2.629 -0.6818 -0.1073 -2.3153
   98SOL     OW  885   4.975   5.201   1.586 -0.0568  0.1577 -0.3692
   98SOL    HW1  886   4.945   5.198   1.677 -1.0898  0.7037 -0.6732
   98SOL    HW2  887   5.047   5.264   1.587  0.1598 -0.0961  0.1313
   99SOL     OW  888   6.241   4.224   3.214  0.3995 -0.1651 -0.2514
   99SOL    HW1  889   6.172   4.169   3.178  0.4406  1.8810 -3.9163
   99SOL    HW2  890   6.319   4.203   3.163  1.4965  0.3697  1.1182
  100SOL     OW  891   0.032   1.603   0.165 -1.0295 -0.0167  0.1996
  100SOL    HW1  892  -0.038   1.668   0.173 -1.5600 -0.5988  0.3943
  100SOL    HW2  893  -0.012   1.523   0.134 -0.1844  0.0773 -1.3798
  101SOL     OW  894   5.462   4.454   1.529 -0.2366  0.1913 -0.2617
  101SOL    HW1  895   5.370   4.480   1.542 -0.5572 -0.4858 -1.0920
  101SOL    HW2  896   5.469   4.439   1.435  0.4753 -0.6899 -0.0774
  102SOL     OW  897   7.305   1.851   1.085  0.0357 -0.3087  0.4510
  102SOL    HW1  898   7.292   1.756   1.079 -0.2571 -0.2773  0.5529
  102SOL    HW2  899   7.228   1.882   1.133 -0.7303  0.1822 -1.0362
  103SOL     OW  900   6.751   1.467   0.436 -0.4260  0.4549 -0.3716
  103SOL    HW1  901   6.793   1.422   0.509 -0.5447  2.0029  0.7060
  103SOL    HW2  902   6.795   1.434   0.358  1.7755  0.9014  0.6069
  104SOL     OW  903   6.796   4.066   1.675  0.3911  0.4655  0.1040
  104SOL    HW1  904   6.776   4.077   1.582 -1.3095 -1.8892  0.1163
  104SOL    HW2  905   6.865   4.000   1.678 -0.8957 -0.9185  0.5222
  105SOL     OW  906   6.098   2.417   0.344 -0.1994 -0.4018  0.5130
  105SOL    HW1  907   6.115   2.359   0.270  1.2540  1.0238 -0.3323
  105SOL    HW2  908   6.153   2.383   0.414 -0.0248 -0.5725  0.2940
  106SOL     OW  909   2.675   3.174   3.449  0.0546 -1.1913  0.3569
  106SOL    HW1  910   2.626   3.192   3.529 -0.0721  0.6837 -0.0809
  106SOL    HW2  911   2.620   3.211   3.379  0.3679 -2.4006 -0.5576
  107SOL     OW  912   1.663   3.626   2.536 -0.4893 -0.1291 -0.1178
  107SOL    HW1  913   1.571   3.634   2.560 -0.1995  1.5014  0.5430
  107SOL    HW2  914   1.663   3.572   2.456 -2.1027  0.7727 -0.7543
  108SOL     OW  915   4.636   0.998   2.653 -0.2739 -0.4547 -0.2938
  108SOL    HW1  916   4.619   1.001   2.559 -1.3460  0.9460 -0.0963
  108SOL    HW2  917   4.673   0.912   2.668  0.5932 -0.4494 -2.1010
  109SOL     OW  918   3.464   1.898   0.952 -0.5293 -0.3904 -0.6262
  109SOL    HW1  919   3.393   1.908   0.890 -0.5773 -1.7445 -0.8197
  109SOL    HW2  920   3.507   1.983   0.954 -2.0126  0.3888 -0.6624
  110SOL     OW  921   3.933   1.168   0.228  0.4152 -0.4132 -0.4855
  110SOL    HW1  922   3.841   1.191   0.245  0.4399 -1.3026  0.9774
  110SOL    HW2  923   3.934   1.073   0.227  1.0938 -0.4230 -2.0193
  111SOL     OW  924   0.334   4.299   1.168  0.3415 -0.3965 -0.1362
  111SOL    HW1  925   0.272   4.352   1.117  0.5581  0.7826  0.7927
  111SOL    HW2  926   0.278   4.236   1.213 -0.1251  0.2047  0.1482
  112SOL     OW  927   6.741   3.076   0.789  0.8326 -0.0887 -0.0631
  112SOL    HW1  928   6.683   3.076   0.713 -0.6911  1.8680  0.9949
  112SOL    HW2  929   6.689   3.118   0.859  2.9210  0.1726  1.4316
  113SOL     OW  930   0.789   2.301   0.571  0.2735 -0.0451 -0.1917
  113SOL    HW1  931   0.723   2.278   0.636 -0.5372  0.6080 -0.7585
  113SOL    HW2  932   0.740   2.342   0.500  1.3376  0.8567 -0.4404
  114SOL     OW  933   1.905   2.194   2.847 -0.2639 -0.2263  0.4848
  114SOL    HW1  934   1.820   2.238   2.844 -1.0396 -1.5341  1.9301
  114SOL    HW2  935   1.917   2.171   2.939  1.4209 -0.5627  0.2183
  115SOL     OW  936   2.068   4.547   0.674  0.3372 -0.0710  0.1967
  115SOL    HW1  937   2.162   4.556   0.691  0.3897 -0.9195  0.4017
  115SOL    HW2  938   2.047   4.619   0.615  1.0132  0.4334  0.5616
  116SOL     OW  939   4.132   0.561   2.607 -0.0427 -0.4781  0.0745
  116SOL    HW1  940   4.171   0.514   2.681 -1.5281  0.1885  1.3658
  116SOL    HW2  941   4.203   0.616   2.573  0.8333 -1.2341  0.6349
  117SOL     OW  942   7.046   4.219   0.455  0.3225 -0.1586  0.3763
  117SOL    HW1  943   7.080   4.153   0.515  1.3056  0.3911  0.4596
  117SOL    HW2  944   6.952   4.201   0.449  0.7130 -2.2085 -0.4285
  118SOL     OW  945   6.620   0.671   3.063 -0.4199 -0.5220  0.4835
  118SOL    HW1  946   6.605   0.735   3.133 -0.5420  0.1849 -0.1644
  118SOL    HW2  947   6.716   0.667   3.055 -0.3985  1.2737 -0.9233
  119SOL     OW  948   0.536   2.728   1.987 -0.9366  0.1320 -0.0831
  119SOL    HW1  949   0.574   2.729   1.899 -0.1475  0.4866  0.2492
  119SOL    HW2  950   0.612   2.729   2.046 -1.4504 -0.2734  0.6044
  120SOL     OW  951   1.233   4.824   1.379 -0.4721  0.0058 -0.3824
  120SOL    HW1  952   1.321   4.850   1.404  0.2160 -1.9199 -0.6122
  120SOL    HW2  953   1.192   4.796   1.460 -0.7414  0.5353 -0.3346
  121SOL     OW  954   2.913   4.917   0.470  0.2858 -0.4561  0.0840
  121SOL    HW1  955   2.979   4.858   0.435 -0.5795 -0.7790 -1.0641
  121SOL    HW2  956   2.895   4.978   0.399  1.1421  1.2259  1.2299
  122SOL     OW  957   4.540   3.085   0.614 -0.8420 -0.1856 -0.4833
  122SOL    HW1  958   4.531   3.095   0.519  1.1931  1.1148 -0.5962
  122SOL    HW2  959   4.589   3.162   0.641  1.5088 -2.1218  1.1273
  123SOL     OW  960   5.462   2.814   2.730 -0.4903 -0.3931  0.4220
  123SOL    HW1  961   5.506   2.735   2.761  0.2372 -0.3140 -0.3844
  123SOL    HW2  962   5.472   2.877   2.802 -0.4227 -0.7928  0.7653
  124SOL     OW  963   5.879   2.507   2.874 -0.0839 -0.5838 -0.0368
  124SOL    HW1  964   5.871   2.449   2.950  1.3495 -1.7265 -0.7049
  124SOL    HW2  965   5.908   2.450   2.803 -0.3064  0.6634 -1.1700
  125SOL     OW  966   0.768   4.214   1.469 -0.3833  0.0906  0.3594
  125SOL    HW1  967   0.757   4.120   1.477  1.3715 -0.1208  0.7752
  125SOL    HW2  968   0.779   4.244   1.560  1.0012  0.3823  0.1254
  126SOL     OW  969   5.350   3.459   2.957  0.1246 -0.1943 -0.0428
  126SOL    HW1  970   5.266   3.482   2.918 -0.4257 -0.8857  0.7160
  126SOL    HW2  971   5.409   3.528   2.928 -0.9400  0.8887  0.2700
  127SOL     OW  972   1.924   2.525   2.761 -0.2289 -0.3122  0.1972
  127SOL    HW1  973   2.008   2.560   2.789  0.0221  0.1300 -1.0570
  127SOL    HW2  974   1.922   2.538   2.666 -1.3667 -1.0585  0.0904
  128SOL     OW  975   2.291   1.004   1.683 -0.0881 -0.1038 -0.0621
  128SOL    HW1  976   2.215   1.056   1.658  0.8227  0.8911 -0.8687
  128SOL    HW2  977   2.281   0.922   1.635 -0.2224  0.3680 -0.8515
  129SOL     OW  978   6.766   2.338   0.064  0.0115  0.4993 -0.0223
  129SOL    HW1  979   6.785   2.432   0.070  0.4954  0.3833  0.3901
  129SOL    HW2  980   6.852   2.298   0.049 -0.3188  0.1975 -1.1753
  130SOL     OW  981   4.428   0.178   0.022 -0.2535 -0.0172  0.5695
  130SOL    HW1  982   4.493   0.247   0.010  0.4228 -0.4860  1.4936
  130SOL    HW2  983   4.479   0.099   0.039 -1.0359 -0.6431  0.0987
  131SOL     OW  984   2.839   4.928   0.736 -0.0359 -0.1545  0.6298
  131SOL    HW1  985   2.875   4.917   0.648  0.6898  0.7228  0.8002
  131SOL    HW2  986   2.892   4.870   0.791 -0.4949 -0.7092  0.5002
  132SOL     OW  987   1.808   3.572   3.458 -0.0167 -0.0177  0.0292
  132SOL    HW1  988   1.895   3.601   3.431 -0.3861  1.1122 -0.0273
  132SOL    HW2  989   1.819   3.480   3.480  1.1584  0.0668 -0.1189
  133SOL     OW  990   1.129   1.048   2.156  0.7078  0.5128 -0.1335
  133SOL    HW1  991   1.088   0.964   2.132  0.2215  0.8194 -0.4054
  133SOL    HW2  992   1.205   1.024   2.207 -0.6243 -0.0652  1.6694
  134SOL     OW  993   1.310   3.917   2.698 -0.2217  0.3443 -0.4125
  134SOL    HW1  994   1.354   3.835   2.718 -0.3638  0.7911  2.0283
  134SOL    HW2  995   1.381   3.977   2.675 -0.1199 -0.4084 -2.2420
  135SOL     OW  996   6.768   2.264   0.634  0.3127  0.3862 -0.5602
  135SOL    HW1  997   6.770   2.169   0.626 -0.5359  0.2343  0.7378
  135SOL    HW2  998   6.860   2.290   0.639  0.5203 -0.4689  0.1387
  136SOL     OW  999   6.527   0.710   2.609  0.2393  0.1868 -0.2458
  136SOL    HW1 1000   6.474   0.780   2.647 -2.0137 -0.5705 -1.8049
  136SOL    HW2 1001   6.537   0.735   2.517  1.1076 -0.5760 -0.3736
  137SOL     OW 1002   1.572   4.316   2.764  0.0140  0.0048  0.7476
  137SOL    HW1 1003   1.540   4.406   2.772 -0.1498  0.1500 -0.9823
  137SOL    HW2 1004   1.558   4.277   2.850  0.0020  1.5993  1.5091
  138SOL     OW 1005   5.708   0.105   0.460 -0.2387 -0.5420  0.0342
  138SOL    HW1 1006   5.613   0.105   0.472 -0.4025 -1.8129 -1.0217
  138SOL    HW2 1007   5.721   0.094   0.366  0.9647 -0.1465  0.1283
  139SOL     OW 1008   0.231   3.486   3.253  0.0922  0.1144  0.1234
  139SOL    HW1 1009   0.177   3.520   3.324  0.6328  0.3134  0.4494
  139SOL    HW2 1010   0.192   3.522   3.174 -1.1927 -1.0130  0.2070
  140SOL     OW 1011   2.510   1.122   1.526  0.0143  0.4155 -0.2305
  140SOL    HW1 1012   2.477   1.076   1.448 -0.4651  2.2903 -1.1933
  140SOL    HW2 1013   2.447   1.103   1.594  0.2503 -0.9724 -0.3768
  141SOL     OW 1014   2.889   1.024   0.476 -0.1659  0.2996 -0.1124
  141SOL    HW1 1015   2.807   1.046   0.519  0.8182  1.0783  1.4357
  141SOL    HW2 1016   2.947   1.098   0.493  0.6593  0.0891 -1.7757
  142SOL     OW 1017   7.332   3.627   1.181 -0.3233 -0.5962 -0.0820
  142SOL    HW1 1018   7.339   3.670   1.267  0.3653 -0.1752 -0.3406
  142SOL    HW2 1019   7.307   3.537   1.202  2.1535 -1.1805  0.7459
  143SOL     OW 1020   4.175   1.375   2.767 -0.0794 -0.7350  0.4446
  143SOL    HW1 1021   4.123   1.441   2.812 -1.8311 -2.5190  1.1953
  143SOL    HW2 1022   4.187   1.409   2.679  1.1900  1.6607  1.4455
  144SOL     OW 1023   0.272   0.265   0.207 -0.2827  0.4656  0.3848
  144SOL    HW1 1024   0.242   0.330   0.144 -1.0806  0.4051  0.6832
  144SOL    HW2 1025   0.333   0.312   0.263 -2.4880  1.6322  1.9879
  145SOL     OW 1026   3.367   0.416   1.193  0.0252  0.4421 -0.1193
  145SOL    HW1 1027   3.273   0.400   1.192  0.1627 -0.5042  0.4609
  145SOL    HW2 1028   3.378   0.502   1.152 -1.1668  0.9995  0.6769
  146SOL     OW 1029   0.853   2.178   1.680 -0.2078 -0.0507  0.3619
  146SOL    HW1 1030   0.881   2.095   1.643 -1.4552 -0.6513  0.7324
  146SOL    HW2 1031   0.803   2.154   1.758 -0.7537  1.0315  0.3636
  147SOL     OW 1032   0.445   1.768   3.370 -0.3390 -0.1066 -0.4013
  147SOL    HW1 1033   0.365   1.723   3.396  0.0592 -0.5135  0.1697
  147SOL    HW2 1034   0.431   1.792   3.279 -1.8273  1.4660  0.1933
  148SOL     OW 1035   0.203   4.633   1.806  0.5050 -0.5269  0.6811
  148SOL    HW1 1036   0.195   4.717   1.852 -1.1027  0.5942 -1.4573
  148SOL    HW2 1037   0.277   4.645   1.746 -0.2819 -0.2472 -0.2706
  149SOL     OW 1038   1.778   0.159   0.557  0.2606 -0.1394  0.2575
  149SOL    HW1 1039   1.683   0.161   0.562  0.1707  2.3549 -0.9909
  149SOL    HW2 1040   1.797   0.114   0.474 -0.0698  2.8142 -1.5580
  150SOL     OW 1041   0.255   3.168   0.615 -0.0850  0.0134 -0.2228
  150SOL    HW1 1042   0.346   3.194   0.602  0.1361 -0.2720  0.6486
  150SOL    HW2 1043   0.211   3.247   0.645 -0.4335  0.4863 -1.9063
  151SOL     OW 1044   4.022   0.091   0.531  0.2505 -0.0331 -0.0691
  151SOL    HW1 1045   4.009   0.183   0.511  0.3745 -0.0077 -0.0359
  151SOL    HW2 1046   3.945   0.065   0.581  1.1164  0.5525  1.6349
  152SOL     OW 1047   0.430   2.971   1.157  0.1275  0.4831  0.2304
  152SOL    HW1 1048   0.473   2.955   1.241  0.3332 -1.2874 -0.1605
  152SOL    HW2 1049   0.496   3.017   1.105 -0.5401  3.0246  1.4840
  153SOL     OW 1050   1.603   1.898   0.235 -0.0468  0.1483 -0.3419
  153SOL    HW1 1051   1.642   1.811   0.241  0.8007  0.3173 -2.6259
  153SOL    HW2 1052   1.520   1.890   0.282  0.2466 -1.7404 -0.0667
  154SOL     OW 1053   0.215   0.453   0.023  0.3761 -0.3543  0.0953
  154SOL    HW1 1054   0.283   0.453  -0.044 -1.1810 -1.4066 -1.5744
  154SOL    HW2 1055   0.141   0.499  -0.016  0.0951  0.8151  1.8849
  155SOL     OW 1056   3.294   5.300   2.565 -0.1844 -0.0178  0.0575
  155SOL    HW1 1057   3.234   5.228   2.550 -0.7345  0.5146 -0.3645
  155SOL    HW2 1058   3.264   5.369   2.506  1.7270 -0.2342 -1.2710
  156SOL     OW 1059   5.761   0.030   2.869  0.0595 -0.0758  0.3071
  156SOL    HW1 1060   5.686   0.086   2.849  2.0278  1.9193 -2.2871
  156SOL    HW2 1061   5.750  -0.045   2.810 -0.6870 -0.6278  1.1234
  157SOL     OW 1062   5.134   4.490   1.955  0.3157  0.0568 -1.0127
  157SOL    HW1 1063   5.229   4.500   1.949  0.3617 -0.2584 -0.8044
  157SOL    HW2 1064   5.107   4.552   2.023  0.3122  0.4902 -1.4017
  158SOL     OW 1065   1.059   2.357   1.630  0.1159 -0.6462 -0.3348
  158SOL    HW1 1066   0.995   2.286   1.628  0.7808 -1.2782  0.3897
  158SOL    HW2 1067   1.131   2.324   1.577  0.2912 -0.3777 -0.2597
  159SOL     OW 1068   0.181   4.690   0.681 -0.3212  0.1946 -0.3353
  159SOL    HW1 1069   0.199   4.765   0.736 -0.2225 -0.0917  0.0287
  159SOL    HW2 1070   0.092   4.704   0.648  0.0201  0.8951 -0.9700
  160SOL     OW 1071   4.110   2.055   2.846 -0.1542  0.0996 -0.0595
  160SOL    HW1 1072   4.141   2.125   2.903 -1.1857 -0.5462  1.3566
  160SOL    HW2 1073   4.059   1.998   2.904  0.3812 -1.6487 -1.2399
  161SOL     OW 1074   6.757   2.985   0.396 -0.3572  0.0932  0.6693
  161SOL    HW1 1075   6.849   2.988   0.424 -0.0857 -0.5862 -0.1007
  161SOL    HW2 1076   6.720   3.068   0.425  0.7492  0.7900  0.1301
  162SOL     OW 1077   3.232   4.649   0.155 -0.3084  0.5101 -0.5359
  162SOL    HW1 1078   3.322   4.623   0.176 -0.3330 -0.4248 -1.5099
  162SOL    HW2 1079   3.239   4.693   0.071 -0.8769 -0.5249 -1.1520
  163SOL     OW 1080   1.575   1.159   0.601 -0.7467  0.2820  0.7638
  163SOL    HW1 1081   1.607   1.149   0.511 -3.1386  1.0665 -0.2451
  163SOL    HW2 1082   1.622   1.235   0.635 -2.8625  2.7479 -1.4140
  164SOL     OW 1083   6.454   2.097   2.579 -0.5495 -0.1538  0.1689
  164SOL    HW1 1084   6.508   2.120   2.654 -1.6030  0.5581  0.7311
  164SOL    HW2 1085   6.513   2.105   2.504 -0.1020  1.6403  0.6552
  165SOL     OW 1086   3.306   0.360   0.304 -0.6140 -0.0494 -0.1865
  165SOL    HW1 1087   3.222   0.321   0.328 -0.1305 -0.9495  0.0694
  165SOL    HW2 1088   3.347   0.382   0.387 -0.4223  0.0321 -0.3029
  166SOL     OW 1089   2.028   0.193   2.648 -0.6137 -0.1358  0.0216
  166SOL    HW1 1090   1.933   0.187   2.648 -0.5849 -0.6472  0.6388
  166SOL    HW2 1091   2.051   0.206   2.556 -1.2472 -0.4934 -0.1906
  167SOL     OW 1092   4.219   4.402   0.864 -0.1425 -0.0389 -0.4467
  167SOL    HW1 1093   4.210   4.381   0.772  0.9292 -0.2854 -0.5041
  167SOL    HW2 1094   4.249   4.321   0.905  0.2792  0.3208 -0.0367
  168SOL     OW 1095   1.275   1.925   0.163 -0.0860  0.3084 -0.0724
  168SOL    HW1 1096   1.213   1.984   0.206  2.0761  1.2346  2.0265
  168SOL    HW2 1097   1.329   1.982   0.109 -0.3587 -0.3229 -1.0288
  169SOL     OW 1098   1.024   4.744   2.477  0.2115 -0.1342 -0.6433
  169SOL    HW1 1099   1.062   4.723   2.562  0.5159 -0.0563 -0.7573
  169SOL    HW2 1100   1.069   4.685   2.416 -2.0459 -2.3023 -0.3867
  170SOL     OW 1101   1.716   4.667   1.420  0.5806 -0.3917 -0.4935
  170SOL    HW1 1102   1.728   4.702   1.508  1.1130  2.5736 -1.6465
  170SOL    HW2 1103   1.803   4.634   1.396  1.5686  2.5340 -1.3180
  171SOL     OW 1104   5.890   2.082   3.218 -0.9839  0.3127 -0.6078
  171SOL    HW1 1105   5.945   2.060   3.293  0.0507  0.7450 -1.2256
  171SOL    HW2 1106   5.846   2.000   3.196  0.1110 -0.2745 -0.6753
  172SOL     OW 1107   4.497   5.143   1.245  0.2309 -0.1487  0.2187
  172SOL    HW1 1108   4.453   5.085   1.183 -1.0127  1.0148 -0.0325
  172SOL    HW2 1109   4.505   5.091   1.325 -2.6729 -0.0632  0.6486
  173SOL     OW 1110   0.076   0.431   1.286  0.1271  0.1353 -0.2661
  173SOL    HW1 1111   0.104   0.495   1.221 -2.3937  2.4496  0.6966
  173SOL    HW2 1112   0.024   0.368   1.237 -0.2185  0.8093 -0.7903
  174SOL     OW 1113   5.810   0.921   0.493  0.0640 -0.0680  0.3634
  174SOL    HW1 1114   5.853   0.859   0.435 -0.0830 -0.5237  0.7348
  174SOL    HW2 1115   5.881   0.955   0.548  0.2769  0.6936 -0.3650
  175SOL     OW 1116   6.493   1.844   1.620  0.5005  0.1820  0.5259
  175SOL    HW1 1117   6.525   1.934   1.618  1.2146 -0.0444 -1.6509
  175SOL    HW2 1118   6.564   1.793   1.657  0.4752  0.3870  0.8562
  176SOL     OW 1119   0.093   1.926   1.467 -0.1141 -0.6021 -0.5778
  176SOL    HW1 1120   0.178   1.946   1.505  0.8198 -1.4192 -2.1698
  176SOL    HW2 1121   0.032   1.983   1.515  0.9264 -1.6188  2.1809
  177SOL     OW 1122   6.425   2.012   0.258  0.0882 -0.5987  0.2035
  177SOL    HW1 1123   6.331   1.992   0.256 -0.0289 -0.0690 -1.3508
  177SOL    HW2 1124   6.437   2.074   0.186  1.7481 -1.1188  0.0038
  178SOL     OW 1125   0.977   1.513   0.315  0.9067  0.4006 -0.0859
  178SOL    HW1 1126   1.053   1.555   0.275 -0.0160  3.0633  0.7952
  178SOL    HW2 1127   0.918   1.497   0.242  0.9881  1.3259 -0.3695
  179SOL     OW 1128   2.107   3.522   0.827 -0.6749 -0.3641 -0.0599
  179SOL    HW1 1129   2.092   3.427   0.831 -0.5403 -0.4521 -1.3289
  179SOL    HW2 1130   2.051   3.553   0.756  1.7957 -0.0540 -2.0260
  180SOL     OW 1131   4.516   1.557   0.434  0.1848 -0.4698 -0.5843
  180SOL    HW1 1132   4.530   1.469   0.469  0.2322 -0.4352 -0.5170
  180SOL    HW2 1133   4.423   1.576   0.452  0.3501 -0.2231  0.0351
  181SOL     OW 1134   3.511   4.165   2.315  0.1801  0.4282  0.8488
  181SOL    HW1 1135   3.587   4.223   2.307 -1.0830  2.0680  0.2274
  181SOL    HW2 1136   3.451   4.195   2.247 -1.9166  0.5927  2.6511
  182SOL     OW 1137   0.173   4.886   1.926 -0.0835  0.3729 -0.9963
  182SOL    HW1 1138   0.240   4.954   1.912  0.9894 -0.6960 -1.2254
  182SOL    HW2 1139   0.120   4.888   1.846  0.4764  0.3521 -1.3730
  183SOL     OW 1140   1.799   2.035   2.625 -0.1645 -0.0036 -0.0050
  183SOL    HW1 1141   1.857   1.964   2.598 -2.4060 -2.1340  0.3973
  183SOL    HW2 1142   1.841   2.072   2.702  0.4305 -1.8941  0.6461
  184SOL     OW 1143   5.779   5.113   2.768  0.4379  0.0996 -0.1409
  184SOL    HW1 1144   5.859   5.083   2.726  1.8034  0.9139  1.7568
  184SOL    HW2 1145   5.772   5.061   2.849  0.3931  1.6621  0.9157
  185SOL     OW 1146   7.144   3.443   1.685 -0.1646 -0.2502 -0.2477
  185SOL    HW1 1147   7.128   3.350   1.703  2.6291 -0.5348  1.4025
  185SOL    HW2 1148   7.088   3.489   1.747 -0.4270 -0.8877  0.0032
  186SOL     OW 1149   2.727   4.675   1.550 -0.3608  0.3112  0.0108
  186SOL    HW1 1150   2.737   4.674   1.455  1.3022  0.0813  0.1577
  186SOL    HW2 1151   2.686   4.592   1.571  1.1626 -0.5778 -0.3667
  187SOL     OW 1152   2.051   0.172   2.177  0.2577  0.5615  0.2760
  187SOL    HW1 1153   2.065   0.079   2.155  0.7419  0.8728 -0.8352
  187SOL    HW2 1154   2.096   0.183   2.261 -0.7785 -0.4615  0.9961
  188SOL     OW 1155   2.843   2.218   1.740  0.2893  0.1726 -0.2590
  188SOL    HW1 1156   2.902   2.244   1.669  0.5088  0.5845  0.0680
  188SOL    HW2 1157   2.789   2.295   1.755 -0.0147 -0.0443 -0.2363
  189SOL     OW 1158   6.655   0.050   0.287  0.8168  0.6563 -0.1807
  189SOL    HW1 1159   6.741   0.018   0.259  0.2316 -0.0721 -1.2101
  189SOL    HW2 1160   6.620   0.095   0.210 -0.4516 -0.6226 -0.4119
  190SOL     OW 1161   7.109   3.359   1.418 -0.2760 -0.5566  0.6631
  190SOL    HW1 1162   7.153   3.372   1.502 -1.1959  1.5813  0.8849
  190SOL    HW2 1163   7.035   3.302   1.438 -0.0814 -0.6405  1.1594
  191SOL     OW 1164   5.583   1.578   0.996 -0.0146  0.4055  0.4781
  191SOL    HW1 1165   5.608   1.664   0.962  1.1958 -0.0295  0.2369
  191SOL    HW2 1166   5.653   1.520   0.968 -0.6664 -0.6109  0.9072
  192SOL     OW 1167   1.898   1.473   0.196  0.3682  0.0487 -0.3442
  192SOL    HW1 1168   1.920   1.564   0.176  1.1252 -0.4713 -2.0711
  192SOL    HW2 1169   1.962   1.422   0.147 -0.4055 -1.4357  0.1362
  193SOL     OW 1170   4.410   5.040   3.035  0.3524 -0.3499 -0.3712
  193SOL    HW1 1171   4.341   5.066   2.974 -0.2265 -0.7945  0.0843
  193SOL    HW2 1172   4.490   5.047   2.983 -0.0131  0.2784 -0.8744
  194SOL     OW 1173   0.121   2.338   0.271  0.5163 -0.0641 -0.5905
  194SOL    HW1 1174   0.145   2.345   0.179 -0.7583  0.6450 -0.8923
  194SOL    HW2 1175   0.063   2.412   0.287  0.6768 -0.2026  0.7777
  195SOL     OW 1176   1.102   3.022   2.001  0.5125  0.0175  0.7228
  195SOL    HW1 1177   1.033   2.970   2.043  1.4717 -0.8712  1.2394
  195SOL    HW2 1178   1.097   2.998   1.909 -0.6232  0.8535  0.5410
  196SOL     OW 1179   4.245   3.519   3.077 -0.8748  0.2798  0.2157
  196SOL    HW1 1180   4.332   3.488   3.102 -1.0311 -0.8612 -0.5907
  196SOL    HW2 1181   4.241   3.609   3.110  1.2674  0.9691 -1.2187
  197SOL     OW 1182   6.628   2.148   2.806  0.0991 -0.2232  0.2077
  197SOL    HW1 1183   6.694   2.206   2.844 -1.5728  1.7541  0.3250
  197SOL    HW2 1184   6.563   2.138   2.876  0.0493 -1.7775 -0.0350
  198SOL     OW 1185   5.982   0.538   3.257 -0.4748  0.0482 -0.0748
  198SOL    HW1 1186   5.936   0.540   3.341 -1.7500  2.5727 -0.7028
  198SOL    HW2 1187   5.924   0.487   3.200 -0.4118 -0.3211  0.1925
  199SOL     OW 1188   3.663   1.189   0.482 -0.5110  0.2796 -0.3666
  199SOL    HW1 1189   3.701   1.214   0.566 -1.8776 -0.4952  0.5312
  199SOL    HW2 1190   3.638   1.272   0.441  0.2543  0.6700 -0.0515
  200SOL     OW 1191   2.546   4.440   0.476 -0.2131 -0.6175 -0.4996
  200SOL    HW1 1192   2.520   4.359   0.431  0.5546 -2.1790  1.6757
  200SOL    HW2 1193   2.602   4.485   0.413 -1.2250 -1.4265 -2.0365
  201SOL     OW 1194   2.077   2.113   2.008  0.1925  0.1417 -0.2294
  201SOL    HW1 1195   2.142   2.101   1.939  0.2136 -0.6050 -0.0924
  201SOL    HW2 1196   2.014   2.041   1.994 -0.4896  0.7293 -0.2399
  202SOL     OW 1197   2.435   0.290   1.170  0.0165  0.2640  0.3129
  202SOL    HW1 1198   2.524   0.320   1.189  0.7523 -1.1023 -0.7682
  202SOL    HW2 1199   2.433   0.280   1.075 -0.7641 -1.2761  0.4617
  203SOL     OW 1200   0.881   0.869   1.594 -0.2778  0.5344  0.2541
  203SOL    HW1 1201   0.903   0.816   1.518 -1.8846  0.3013 -0.0918
  203SOL    HW2 1202   0.861   0.806   1.663 -0.3050  0.7197  0.4189
  204SOL     OW 1203   0.900   2.094   0.477  0.1924 -0.1077 -0.1542
  204SOL    HW1 1204   0.865   2.181   0.498 -2.2867 -0.5306 -2.1093
  204SOL    HW2 1205   0.927   2.058   0.562 -3.2526  0.7298  1.4876
  205SOL     OW 1206   1.528   1.561   1.834  0.3808  0.3747 -0.0390
  205SOL    HW1 1207   1.588   1.594   1.900  0.7710 -2.4771  1.1493
  205SOL    HW2 1208   1.552   1.470   1.822 -0.9326  0.2788 -2.7639
  206SOL     OW 1209   4.242   3.227   1.248 -0.1684 -0.1989  0.8208
  206SOL    HW1 1210   4.205   3.141   1.232 -0.6859  0.0800  0.4960
  206SOL    HW2 1211   4.311   3.236   1.182 -1.2090  0.2899 -0.2446
  207SOL     OW 1212   5.196   4.608   1.598 -0.2879 -0.0427  0.4577
  207SOL    HW1 1213   5.201   4.556   1.678 -0.2171  0.0878  0.5377
  207SOL    HW2 1214   5.159   4.691   1.626  1.2417  0.6038  0.6445
  208SOL     OW 1215   4.703   0.766   0.229 -0.8315 -0.5373  0.0471
  208SOL    HW1 1216   4.686   0.765   0.134 -0.0208  0.1042 -0.1172
  208SOL    HW2 1217   4.789   0.807   0.237 -1.6306  1.0343  1.1839
  209SOL     OW 1218   3.669   3.502   0.610 -0.5371  0.3267  0.7584
  209SOL    HW1 1219   3.635   3.413   0.622 -2.5566  1.1399  1.4188
  209SOL    HW2 1220   3.595   3.552   0.577  0.4562  1.8664  0.7745
  210SOL     OW 1221   1.743   4.706   3.345  0.6357 -0.3285  0.9476
  210SOL    HW1 1222   1.769   4.690   3.254 -0.8605 -0.0379  0.4381
  210SOL    HW2 1223   1.804   4.654   3.397  0.8230 -1.3858 -0.2836
  211SOL     OW 1224   4.452   4.641   1.867 -0.1249  0.0303  0.1908
  211SOL    HW1 1225   4.478   4.658   1.958  1.8819  1.1315 -0.5469
  211SOL    HW2 1226   4.498   4.561   1.844 -1.4298 -0.8154  0.4174
  212SOL     OW 1227   0.997   1.856   1.177  0.7415  0.4632  0.0958
  212SOL    HW1 1228   1.078   1.908   1.176  1.1523 -0.1581 -0.7745
  212SOL    HW2 1229   1.020   1.777   1.129 -0.9771  1.1623 -2.0200
  213SOL     OW 1230   2.309   2.238   0.648 -0.6102  0.2591 -0.0503
  213SOL    HW1 1231   2.317   2.256   0.742 -1.7469 -1.3881  0.4016
  213SOL    HW2 1232   2.397   2.255   0.614 -0.2770  1.3045  1.2254
  214SOL     OW 1233   0.481   1.481   2.818 -0.3686 -0.4065  0.2192
  214SOL    HW1 1234   0.529   1.442   2.890 -2.4713 -0.9197  1.4291
  214SOL    HW2 1235   0.444   1.407   2.770  0.1358 -0.0351 -0.7710
  215SOL     OW 1236   0.897   0.176   0.188  0.0868  0.7811 -0.3774
  215SOL    HW1 1237   0.802   0.163   0.192  0.2505 -0.3356  0.9586
  215SOL    HW2 1238   0.925   0.172   0.280  1.5971 -0.4512 -0.8450
  216SOL     OW 1239   6.466   1.629   0.437 -0.5563  0.3313  0.5624
  216SOL    HW1 1240   6.464   1.724   0.421  0.2770  0.2252 -0.1986
  216SOL    HW2 1241   6.557   1.603   0.422 -0.9227 -0.7132  0.0405
  217SOL     OW 1242   3.446   1.113   3.053  0.0939  0.3998 -0.4850
  217SOL    HW1 1243   3.370   1.109   3.111  1.1930 -2.3202  0.9818
  217SOL    HW2 1244   3.486   1.198   3.070 -0.5414  0.3240  1.5615
  218SOL     OW 1245   6.611   1.552   3.294 -0.0208 -0.4511 -0.0375
  218SOL    HW1 1246   6.583   1.637   3.327 -0.3024  0.1165 -1.6328
  218SOL    HW2 1247   6.548   1.531   3.225  0.9181 -1.2177 -0.6985
  219SOL     OW 1248   4.914   2.528   2.985  0.5920  0.0179 -0.3185
  219SOL    HW1 1249   4.891   2.585   3.058 -0.2791 -0.1767 -0.4241
  219SOL    HW2 1250   4.835   2.475   2.970  0.7605  0.0292 -1.3664
  220SOL     OW 1251   5.770   3.949   1.201  0.3799  0.0214 -0.0346
  220SOL    HW1 1252   5.713   4.002   1.145  1.1777 -0.8326 -1.7208
  220SOL    HW2 1253   5.843   4.007   1.223  1.8237 -0.5742 -2.7933
  221SOL     OW 1254   6.131   2.458   3.208  0.4806  0.0550  0.1014
  221SOL    HW1 1255   6.162   2.425   3.123 -0.4698 -1.7976  0.4378
  221SOL    HW2 1256   6.156   2.551   3.207 -1.1109  0.5815 -2.9679
  222SOL     OW 1257   2.245   4.358   1.242  0.4158  0.5185 -0.4519
  222SOL    HW1 1258   2.196   4.325   1.167 -0.0262  1.0138 -0.3878
  222SOL    HW2 1259   2.181   4.359   1.314  0.9620 -0.4282  0.0641
  223SOL     OW 1260   1.488   2.583   1.600 -0.3535 -0.1146 -0.0715
  223SOL    HW1 1261   1.565   2.538   1.565  2.0724  1.1411  3.1566
  223SOL    HW2 1262   1.471   2.540   1.684 -0.6603  2.1173  1.0884
  224SOL     OW 1263   7.063   0.287   1.538 -0.3993 -0.1233 -0.2793
  224SOL    HW1 1264   7.007   0.360   1.564  0.9200  0.5698  0.7285
  224SOL    HW2 1265   7.052   0.222   1.607 -0.0141  0.0051 -0.0895
  225SOL     OW 1266   2.370   1.911   1.119 -0.0974 -0.0362 -0.1958
  225SOL    HW1 1267   2.386   1.946   1.206  0.5512  0.5323 -0.5264
  225SOL    HW2 1268   2.364   1.989   1.063  0.4549 -0.4216 -0.8043
  226SOL     OW 1269   5.512   2.708   0.666 -0.1780 -0.2601 -0.2111
  226SOL    HW1 1270   5.422   2.697   0.634  0.2687  0.3294 -1.7919
  226SOL    HW2 1271   5.560   2.635   0.626  0.5635  0.9540 -1.6707
  227SOL     OW 1272   2.917   3.964   1.469  0.0718 -0.4713 -0.6029
  227SOL    HW1 1273   2.865   3.912   1.408 -0.2709  0.2570 -0.9445
  227SOL    HW2 1274   2.880   3.945   1.555 -0.0293 -0.8186 -0.7245
  228SOL     OW 1275   6.955   3.795   2.973  0.0492  0.4939 -0.6321
  228SOL    HW1 1276   7.028   3.845   2.935 -1.4727  1.8371 -1.9962
  228SOL    HW2 1277   6.972   3.705   2.948  1.7367  0.6151 -0.0481
  229SOL     OW 1278   1.118   3.996   0.781 -0.8896  0.1234 -0.3949
  229SOL    HW1 1279   1.062   4.028   0.711  0.4737 -1.7505 -2.4577
  229SOL    HW2 1280   1.072   3.919   0.815 -0.9508  0.3023 -0.0667
  230SOL     OW 1281   5.116   3.491   2.834  0.8284  0.1284  0.0999
  230SOL    HW1 1282   5.071   3.422   2.883 -1.0520  1.4177  0.3115
  230SOL    HW2 1283   5.123   3.457   2.745 -0.6388 -0.1248  0.0574
  231SOL     OW 1284   5.979   4.865   1.512 -0.0488  0.0601 -0.1902
  231SOL    HW1 1285   6.002   4.953   1.544 -0.6084  0.7638 -1.6384
  231SOL    HW2 1286   5.953   4.817   1.591  0.5150  1.1074  0.6641
  232SOL     OW 1287   1.840   1.603   1.558 -0.5298  0.7310  0.4134
  232SOL    HW1 1288   1.832   1.626   1.466 -0.1213  0.2453  0.2546
  232SOL    HW2 1289   1.931   1.576   1.569 -0.8162 -0.1485  0.7358
  233SOL     OW 1290   2.696   0.618   0.755  0.2863 -0.4929 -0.1713
  233SOL    HW1 1291   2.789   0.600   0.766  0.0470 -2.6218 -1.0446
  233SOL    HW2 1292   2.662   0.627   0.844  1.5305  1.8796  0.1467
  234SOL     OW 1293   4.574   5.251   0.834  0.3533 -0.5387 -0.2769
  234SOL    HW1 1294   4.641   5.183   0.818 -0.1449 -1.4638  1.2976
  234SOL    HW2 1295   4.520   5.250   0.755 -0.4836 -3.0267  0.2228
  235SOL     OW 1296   0.881   3.364   1.350  0.0548 -0.0121 -0.5062
  235SOL    HW1 1297   0.936   3.286   1.344  0.4841  0.3218 -0.9366
  235SOL    HW2 1298   0.807   3.347   1.292  0.5628  0.2310 -1.2428
  236SOL     OW 1299   2.355   3.243   0.730  0.4563 -0.3299 -0.6348
  236SOL    HW1 1300   2.275   3.248   0.678 -0.5135  0.0868  0.8300
  236SOL    HW2 1301   2.331   3.283   0.814  2.1381 -0.4122 -0.0844
  237SOL     OW 1302   0.080   0.645   3.146 -0.2060 -0.6506 -0.2597
  237SOL    HW1 1303   0.036   0.561   3.159 -1.2561 -0.0336  0.4050
  237SOL    HW2 1304   0.030   0.706   3.201  1.3697  0.1395  0.3744
  238SOL     OW 1305   0.556   4.854   1.438 -0.0130  0.1581  0.0786
  238SOL    HW1 1306   0.586   4.767   1.411  0.0845  0.4668 -0.8424
  238SOL    HW2 1307   0.460   4.846   1.440 -0.0399  0.2338 -0.7436
  239SOL     OW 1308   4.066   3.005   0.129 -0.0841 -0.1195 -0.2322
  239SOL    HW1 1309   4.060   2.913   0.105  0.0828 -0.3366  0.5617
  239SOL    HW2 1310   4.075   3.006   0.224  1.2923  0.6601 -0.3500
  240SOL     OW 1311   5.750   4.102   2.334  0.0450  0.4164  0.3318
  240SOL    HW1 1312   5.842   4.083   2.318  0.2086  0.5849  1.0457
  240SOL    HW2 1313   5.727   4.047   2.410  0.0714  1.7581  1.3419
  241SOL     OW 1314   1.590   0.959   2.336 -0.0625  0.5170 -0.6447
  241SOL    HW1 1315   1.507   0.959   2.384 -0.8187  3.4445 -1.7498
  241SOL    HW2 1316   1.656   0.939   2.403 -1.4773 -0.1099  0.6140
  242SOL     OW 1317   7.255   1.522   3.039 -0.2473 -0.0370  0.2881
  242SOL    HW1 1318   7.251   1.585   3.111  0.6809 -0.1337  0.4465
  242SOL    HW2 1319   7.170   1.479   3.039 -0.4558  0.3603  0.9586
  243SOL     OW 1320   7.087   4.521   2.335  0.2274 -0.0568  0.1147
  243SOL    HW1 1321   7.116   4.442   2.381  0.6293 -0.1702 -0.3250
  243SOL    HW2 1322   7.058   4.579   2.404  0.1027 -0.5188  0.4592
  244SOL     OW 1323   3.809   0.063   0.691 -0.3288  0.1612  0.4715
  244SOL    HW1 1324   3.790   0.015   0.772  0.4715  1.0067  1.1910
  244SOL    HW2 1325   3.781   0.152   0.710 -1.3886  0.0929 -0.6879
  245SOL     OW 1326   5.063   4.879   1.510  0.7165 -0.1972  0.2481
  245SOL    HW1 1327   5.010   4.843   1.439  2.1877 -3.0920  0.4666
  245SOL    HW2 1328   5.053   4.974   1.502 -0.2501 -0.4547 -2.9538
  246SOL     OW 1329   4.972   0.831   0.150  0.6199 -0.2570 -0.0601
  246SOL    HW1 1330   5.014   0.771   0.211  0.3558 -0.0529  0.3247
  246SOL    HW2 1331   5.024   0.911   0.155 -1.3249  1.0000  2.4865
  247SOL     OW 1332   6.673   0.986   1.733 -0.0727  0.7289  0.1079
  247SOL    HW1 1333   6.764   0.957   1.735 -0.0107  0.9348  0.5326
  247SOL    HW2 1334   6.652   1.006   1.825 -0.5942  0.5346  0.0384
  248SOL     OW 1335   1.355   4.859   1.105  0.4576 -0.6735  0.0295
  248SOL    HW1 1336   1.296   4.874   1.180 -0.6961 -1.2267 -0.7393
  248SOL    HW2 1337   1.395   4.774   1.124  0.2445 -0.7668  0.0682
  249SOL     OW 1338   5.595   2.172   1.354  0.4461  0.1769  0.1178
  249SOL    HW1 1339   5.505   2.140   1.365  0.8098 -1.9257 -2.2757
  249SOL    HW2 1340   5.593   2.219   1.270  1.2789  1.4635  0.7884
  250SOL     OW 1341   6.124   0.655   1.379  0.4220  0.9718 -0.2695
  250SOL    HW1 1342   6.213   0.683   1.400  0.5949  0.0997  0.1918
  250SOL    HW2 1343   6.071   0.691   1.451  0.7560 -0.4770  0.7512
  251SOL     OW 1344   6.063   1.538   1.616  0.3328 -0.0330  0.6630
  251SOL    HW1 1345   6.013   1.509   1.540  1.6146 -0.2200 -0.1289
  251SOL    HW2 1346   6.065   1.462   1.674 -1.0393  0.2520  1.1291
  252SOL     OW 1347   5.204   0.555   2.934 -0.2956 -0.6130 -0.2845
  252SOL    HW1 1348   5.240   0.547   3.022  0.2302 -0.0715 -0.4392
  252SOL    HW2 1349   5.112   0.577   2.947  0.1532  1.1361  0.1516
  253SOL     OW 1350   2.593   5.191   1.239 -0.1098 -0.1641 -0.9520
  253SOL    HW1 1351   2.571   5.116   1.294  0.1290  0.6924  0.3554
  253SOL    HW2 1352   2.665   5.159   1.184  0.0657 -0.8703 -0.3391
  254SOL     OW 1353   3.104   1.896   2.903 -0.3085 -0.6481 -0.2118
  254SOL    HW1 1354   3.170   1.927   2.840  1.2117  0.4645  1.8088
  254SOL    HW2 1355   3.027   1.950   2.885  0.7016  0.9533  0.0157
  255SOL     OW 1356   5.384   2.929   2.123  0.3826 -0.2213 -0.0895
  255SOL    HW1 1357   5.331   2.969   2.054  0.2717 -1.5393 -0.7950
  255SOL    HW2 1358   5.473   2.928   2.086  0.2266 -1.4521 -0.4873
  256SOL     OW 1359   2.089   1.442   1.826 -0.3423  0.0766 -0.0931
  256SOL    HW1 1360   2.113   1.468   1.737 -0.7657  0.6009 -0.0604
  256SOL    HW2 1361   2.019   1.378   1.814 -0.8514  0.6293 -0.1310
  257SOL     OW 1362   3.120   4.435   2.833 -0.0315  0.1147  0.3222
  257SOL    HW1 1363   3.186   4.367   2.821 -0.0138  0.1185  0.3970
  257SOL    HW2 1364   3.159   4.514   2.796  1.0656  0.7486  2.6176
  258SOL     OW 1365   7.057   4.604   1.418  0.2774  0.1153 -0.0841
  258SOL    HW1 1366   7.047   4.693   1.383 -0.0445 -0.5419 -1.7596
  258SOL    HW2 1367   7.124   4.565   1.362 -0.8154 -1.2359 -0.4826
  259SOL     OW 1368   4.153   2.430   3.363 -0.0211  0.3200  0.2095
  259SOL    HW1 1369   4.166   2.499   3.298  0.8173 -0.0786 -0.0722
  259SOL    HW2 1370   4.059   2.416   3.366 -0.1472  1.0403 -0.1886
  260SOL     OW 1371   5.835   1.134   1.895  0.1921  0.1818  0.1684
  260SOL    HW1 1372   5.910   1.192   1.903  0.3933 -0.2522  1.8549
  260SOL    HW2 1373   5.760   1.188   1.921  0.3100 -0.1394  1.2180
  261SOL     OW 1374   2.120   4.026   1.531  0.5318 -0.1270  0.1340
  261SOL    HW1 1375   2.065   4.078   1.589  2.0645  1.0791  0.6059
  261SOL    HW2 1376   2.090   3.936   1.542 -0.1481  0.2558  1.7093
  262SOL     OW 1377   3.837   0.658   0.251 -0.4162  0.1113  0.0349
  262SOL    HW1 1378   3.882   0.581   0.215 -2.9114 -0.6033 -1.9632
  262SOL    HW2 1379   3.757   0.622   0.290 -0.1233  1.4447  1.9859
  263SOL     OW 1380   3.951   1.655   2.581 -0.2052  0.1673 -0.0548
  263SOL    HW1 1381   4.033   1.702   2.568  0.0327 -0.3633 -0.4690
  263SOL    HW2 1382   3.892   1.693   2.516 -0.1045  0.1098 -0.1803
  264SOL     OW 1383   7.220   0.310   2.559 -0.1868  0.1331 -0.0335
  264SOL    HW1 1384   7.212   0.217   2.580  0.7977  0.2137  0.8309
  264SOL    HW2 1385   7.190   0.318   2.469  0.5682 -1.1813 -0.4213
  265SOL     OW 1386   0.349   0.242   0.619 -0.4026  0.0723 -0.2211
  265SOL    HW1 1387   0.389   0.193   0.690 -0.9808 -1.2310 -0.7600
  265SOL    HW2 1388   0.369   0.334   0.638  3.3885 -0.4639 -0.7681
  266SOL     OW 1389   0.238   0.327   3.154 -0.4884 -0.9162  0.6354
  266SOL    HW1 1390   0.279   0.254   3.107 -0.3546  0.8638 -2.2828
  266SOL    HW2 1391   0.146   0.325   3.126 -0.4971 -0.0426  0.5806
  267SOL     OW 1392   5.291   3.041   2.385 -0.1899 -0.0123 -0.3042
  267SOL    HW1 1393   5.290   2.964   2.441  0.2415 -1.1579 -1.7921
  267SOL    HW2 1394   5.320   3.008   2.300  0.3009  1.8537 -0.9152
  268SOL     OW 1395   1.928   5.024   1.145  0.1125  0.2174  0.0620
  268SOL    HW1 1396   1.981   5.082   1.091  0.7515 -0.6940 -0.3013
  268SOL    HW2 1397   1.893   4.959   1.084 -0.1942 -0.0782  0.5437
  269SOL     OW 1398   1.520   5.036   2.636  0.3202 -0.2855 -0.2162
  269SOL    HW1 1399   1.517   5.060   2.728 -0.7047  0.0991 -0.3460
  269SOL    HW2 1400   1.486   4.947   2.633 -0.9678  0.1926 -0.3742
  270SOL     OW 1401   1.253   2.820   2.579  0.0313  0.8553 -0.0099
  270SOL    HW1 1402   1.186   2.755   2.559  0.0072  0.1728  2.0176
  270SOL    HW2 1403   1.324   2.802   2.518 -0.1842 -0.7697  0.1861
  271SOL     OW 1404   5.210   5.230   0.374 -0.4403  0.2540  0.0840
  271SOL    HW1 1405   5.119   5.250   0.394 -0.8971 -0.7867 -0.8613
  271SOL    HW2 1406   5.218   5.136   0.385 -0.1356 -0.0406 -2.2260
  272SOL     OW 1407   5.899   3.775   0.537  0.4556 -0.7151 -0.7234
  272SOL    HW1 1408   5.851   3.756   0.457  0.1801 -2.8403 -0.1077
  272SOL    HW2 1409   5.856   3.722   0.604 -0.4355  2.2899  1.2772
  273SOL     OW 1410   3.423   5.106   1.418 -0.7536  0.0410  0.2702
  273SOL    HW1 1411   3.366   5.081   1.490  1.5599  1.4079  2.7359
  273SOL    HW2 1412   3.489   5.036   1.414  0.1363  0.8441  0.6695
  274SOL     OW 1413   2.332   4.242   0.719  0.2752 -0.3774  0.0252
  274SOL    HW1 1414   2.347   4.336   0.708 -1.0205 -0.1967 -0.3562
  274SOL    HW2 1415   2.242   4.228   0.690 -0.0016 -1.5256  1.3246
  275SOL     OW 1416   5.516   0.709   1.639  0.4886  0.7830 -0.0473
  275SOL    HW1 1417   5.530   0.767   1.714  1.5920  0.0773  0.3084
  275SOL    HW2 1418   5.423   0.686   1.645  0.4981  0.9336  0.9571
  276SOL     OW 1419   1.452   0.572   0.492 -0.1153 -0.3095  0.6692
  276SOL    HW1 1420   1.516   0.525   0.440 -0.9935 -1.3241  0.4747
  276SOL    HW2 1421   1.428   0.648   0.438 -1.2551 -1.5138 -0.5846
  277SOL     OW 1422   1.662   1.783   2.123  0.9131 -0.0820  0.5996
  277SOL    HW1 1423   1.680   1.736   2.041  0.0885  0.7093 -0.0640
  277SOL    HW2 1424   1.720   1.743   2.187  1.6954 -0.6128 -0.4114
  278SOL     OW 1425   0.261   3.346   1.233 -0.2091  0.2699 -0.1966
  278SOL    HW1 1426   0.324   3.322   1.301  0.5269 -0.8804 -1.2546
  278SOL    HW2 1427   0.200   3.273   1.230 -1.7924  1.4508  0.9475
  279SOL     OW 1428   6.288   3.469   2.304  0.4077 -0.2618 -0.5257
  279SOL    HW1 1429   6.374   3.500   2.276  0.0838 -1.2729 -2.8500
  279SOL    HW2 1430   6.300   3.374   2.314  0.3422 -0.0771  2.4616
  280SOL     OW 1431   3.223   4.295   3.432 -0.1392 -0.0846 -0.1996
  280SOL    HW1 1432   3.298   4.334   3.477  0.3861 -0.4132 -0.7773
  280SOL    HW2 1433   3.210   4.211   3.475  0.3736 -0.4063 -0.6758
  281SOL     OW 1434   3.152   4.589   3.113  0.2697  0.1432 -0.2287
  281SOL    HW1 1435   3.183   4.678   3.132 -1.4434  0.6011  0.6651
  281SOL    HW2 1436   3.138   4.589   3.018  0.4509  0.7781 -0.2641
  282SOL     OW 1437   1.745   3.844   0.808 -0.1614 -0.0292 -0.2681
  282SOL    HW1 1438   1.699   3.769   0.845  0.8367 -0.7196 -0.3726
  282SOL    HW2 1439   1.801   3.876   0.878  0.1198  0.0230 -0.5128
  283SOL     OW 1440   3.933   4.935   3.379  0.1004 -0.1364  0.4252
  283SOL    HW1 1441   3.951   5.027   3.393  0.8857 -0.0980 -0.7020
  283SOL    HW2 1442   3.913   4.900   3.466  0.1062  1.0209  0.8974
  284SOL     OW 1443   0.790   3.644   1.206  0.4252 -0.4919 -0.6067
  284SOL    HW1 1444   0.769   3.579   1.139 -0.4247 -2.1512  1.1959
  284SOL    HW2 1445   0.728   3.715   1.191 -0.4886 -1.3359 -0.8871
  285SOL     OW 1446   1.849   1.729   2.320  0.0238  0.2331 -0.3656
  285SOL    HW1 1447   1.887   1.817   2.328  0.9197 -0.0063 -1.7107
  285SOL    HW2 1448   1.922   1.670   2.340 -0.7504 -0.2495  1.2758
  286SOL     OW 1449   6.448   1.374   1.868  0.3947 -0.5680  0.0053
  286SOL    HW1 1450   6.542   1.385   1.853  0.7435 -0.4979  1.9781
  286SOL    HW2 1451   6.431   1.282   1.847  1.0298 -0.7223  0.1325
  287SOL     OW 1452   1.398   0.317   0.066  0.1683  0.1344 -0.0283
  287SOL    HW1 1453   1.470   0.253   0.063 -0.0195 -0.0588 -0.7744
  287SOL    HW2 1454   1.324   0.268   0.102  0.4468  0.3749  0.8796
  288SOL     OW 1455   5.902   4.408   1.922 -0.0891  0.1878 -0.3321
  288SOL    HW1 1456   5.993   4.379   1.928 -0.7480 -1.8424  0.6071
  288SOL    HW2 1457   5.903   4.495   1.962  1.1952 -0.4235  1.0880
  289SOL     OW 1458   6.435   3.444   0.688  0.0869  0.3340  0.8175
  289SOL    HW1 1459   6.377   3.475   0.758 -0.9128  0.6350 -0.1082
  289SOL    HW2 1460   6.436   3.515   0.625  0.3878 -0.2189  0.1909
  290SOL     OW 1461   6.554   0.357   2.516  0.8009  0.1406  0.0751
  290SOL    HW1 1462   6.570   0.263   2.501 -2.9577 -0.6377 -0.1184
  290SOL    HW2 1463   6.548   0.395   2.428 -2.7822 -0.6580 -0.2075
  291SOL     OW 1464   2.534   0.645   1.394  0.7482 -0.4140  0.2577
  291SOL    HW1 1465   2.469   0.712   1.412 -0.6431 -1.2636 -1.3292
  291SOL    HW2 1466   2.519   0.578   1.461 -0.7717 -1.0906 -0.7096
  292SOL     OW 1467   6.628   0.037   2.625 -0.1691  0.1980 -0.1380
  292SOL    HW1 1468   6.563   0.070   2.686 -0.5505 -1.7640  0.5817
  292SOL    HW2 1469   6.594  -0.048   2.597  1.2748 -0.1239 -1.0397
  293SOL     OW 1470   1.154   0.469   0.143 -0.0537 -0.3220 -0.0524
  293SOL    HW1 1471   1.242   0.442   0.117 -0.3309  0.3569 -1.8910
  293SOL    HW2 1472   1.101   0.389   0.139  0.5478 -0.8536  1.6338
  294SOL     OW 1473   4.285   3.157   0.157 -0.1772 -0.3576 -0.1395
  294SOL    HW1 1474   4.259   3.237   0.111  0.9297 -0.7598 -1.5412
  294SOL    HW2 1475   4.206   3.102   0.156  0.1021 -0.8564 -2.7547
  295SOL     OW 1476   2.302   3.324   0.332  0.3721 -0.3927  0.0682
  295SOL    HW1 1477   2.309   3.405   0.382  1.3402 -0.0901 -0.5362
  295SOL    HW2 1478   2.270   3.259   0.395 -0.5222  0.4770  0.5273
  296SOL     OW 1479   3.118   0.347   1.253  0.3728  0.0806  0.1031
  296SOL    HW1 1480   3.156   0.316   1.335  0.7315 -1.6745 -0.6789
  296SOL    HW2 1481   3.114   0.269   1.197 -0.1140  1.1678 -1.4560
  297SOL     OW 1482   5.395   3.077   1.634 -0.6223 -0.4658 -0.1683
  297SOL    HW1 1483   5.415   3.163   1.596  0.4765 -0.8654 -0.5346
  297SOL    HW2 1484   5.372   3.096   1.725 -0.3406  0.2130 -0.2292
  298SOL     OW 1485   5.007   5.008   0.775  0.4360 -0.5599  0.0465
  298SOL    HW1 1486   5.049   5.089   0.745 -0.2834  0.0474  0.6609
  298SOL    HW2 1487   4.917   5.015   0.744  1.0124 -2.4343 -2.3717
  299SOL     OW 1488   2.885   4.645   0.036  0.4307 -0.4058 -0.5780
  299SOL    HW1 1489   2.922   4.655  -0.051 -0.5241  2.9398 -0.7231
  299SOL    HW2 1490   2.960   4.619   0.091  1.4383 -0.6506 -2.0261
  300SOL     OW 1491   4.672   1.405   1.955  0.0882  0.4506 -0.1488
  300SOL    HW1 1492   4.617   1.468   1.909  1.4223  1.1376 -0.8855
  300SOL    HW2 1493   4.653   1.420   2.048  1.4522  3.0741 -0.1928
  301SOL     OW 1494   7.243   4.546   2.787 -0.1836 -0.0817  0.2045
  301SOL    HW1 1495   7.330   4.552   2.827 -0.9833  2.5940  1.8191
  301SOL    HW2 1496   7.252   4.592   2.704  0.2186 -1.0624 -0.3238
  302SOL     OW 1497   6.726   1.391   1.268  0.6438  0.0949  0.1054
  302SOL    HW1 1498   6.793   1.458   1.285  2.1881 -1.4978  0.6188
  302SOL    HW2 1499   6.719   1.389   1.172  1.5527  0.0915  0.0281
  303SOL     OW 1500   4.132   1.128   1.937  0.0496  0.1019  0.0708
  303SOL    HW1 1501   4.144   1.217   1.905 -1.4358  0.3945  0.2429
  303SOL    HW2 1502   4.213   1.083   1.915  1.0674  1.6407  0.5140
  304SOL     OW 1503   1.396   3.510   2.468 -0.0721 -0.3933  0.2079
  304SOL    HW1 1504   1.405   3.415   2.465 -0.0808 -0.3787 -0.6015
  304SOL    HW2 1505   1.327   3.525   2.532 -0.5065 -0.9700 -0.1106
  305SOL     OW 1506   1.305   0.921   0.055  0.2570 -0.3818 -0.6171
  305SOL    HW1 1507   1.364   0.964  -0.008  1.2782 -0.8008  0.0307
  305SOL    HW2 1508   1.312   0.828   0.035 -0.3867 -0.4189 -0.6924
  306SOL     OW 1509   0.497   0.797   2.619 -0.3475 -0.1132 -0.4082
  306SOL    HW1 1510   0.562   0.856   2.656 -1.5818  1.1681 -0.1852
  306SOL    HW2 1511   0.491   0.724   2.681 -2.4438  2.0163  2.1107
  307SOL     OW 1512   5.324   3.283   2.485 -0.6313  0.1192  0.3750
  307SOL    HW1 1513   5.416   3.265   2.501 -0.9258 -0.4865  1.4509
  307SOL    HW2 1514   5.296   3.213   2.425 -0.2223  0.7563 -0.5921
  308SOL     OW 1515   3.268   5.316   0.361  0.3780  0.0409  0.5089
  308SOL    HW1 1516   3.240   5.329   0.270 -0.0944  1.9794  0.8920
  308SOL    HW2 1517   3.361   5.296   0.354  0.4575  0.6381 -0.3842
  309SOL     OW 1518   2.709   1.907   0.871  0.3590 -0.0400  0.4888
  309SOL    HW1 1519   2.676   1.838   0.928  0.1328  0.8852  1.5046
  309SOL    HW2 1520   2.757   1.966   0.929 -1.3425  1.8836  0.0595
  310SOL     OW 1521   5.320   3.480   0.064  0.6452  0.2180 -0.8543
  310SOL    HW1 1522   5.317   3.476  -0.032  0.1352 -2.1497 -0.8064
  310SOL    HW2 1523   5.231   3.458   0.092  0.1373  3.1836  0.2129
  311SOL     OW 1524   1.558   2.896   1.012  0.0340 -0.2013  0.2849
  311SOL    HW1 1525   1.635   2.875   0.959  0.4410  1.1711  0.3046
  311SOL    HW2 1526   1.485   2.891   0.950 -0.0070 -2.2378  0.4211
  312SOL     OW 1527   2.599   2.218   0.928  0.3939 -0.4865 -0.2783
  312SOL    HW1 1528   2.676   2.175   0.965 -0.6838 -1.3151  1.1005
  312SOL    HW2 1529   2.623   2.310   0.923  0.5128 -0.2449  2.9660
  313SOL     OW 1530   1.786   5.031   3.179  0.5521 -0.3683  0.3176
  313SOL    HW1 1531   1.808   5.042   3.271  0.3963 -3.1838  0.7722
  313SOL    HW2 1532   1.861   4.987   3.141  0.3398  0.1734 -0.7513
  314SOL     OW 1533   3.994   3.764   1.285 -0.2636  0.6378  0.4497
  314SOL    HW1 1534   3.932   3.753   1.357 -0.6017 -0.0967  0.0543
  314SOL    HW2 1535   3.947   3.735   1.207  0.8438 -0.8122  0.2694
  315SOL     OW 1536   4.165   1.601   3.020 -0.3301 -0.4270  0.1137
  315SOL    HW1 1537   4.140   1.690   3.043  1.3079  0.6733 -1.9352
  315SOL    HW2 1538   4.097   1.572   2.959 -1.2530 -0.8989  1.3350
  316SOL     OW 1539   1.698   3.028   0.560 -0.6414  0.2898 -0.4529
  316SOL    HW1 1540   1.739   2.957   0.510 -0.1231  2.0107 -2.5963
  316SOL    HW2 1541   1.604   3.016   0.547 -0.5594  0.0014 -0.7890
  317SOL     OW 1542   6.239   0.779   2.810 -0.6895  0.3536  0.0859
  317SOL    HW1 1543   6.153   0.763   2.847 -1.3176 -1.6946 -2.0224
  317SOL    HW2 1544   6.299   0.726   2.862 -1.4931 -2.1335 -1.3405
  318SOL     OW 1545   5.579   3.304   3.166 -0.3944  0.2746  0.0597
  318SOL    HW1 1546   5.509   3.251   3.203 -0.7976  0.2905 -0.6707
  318SOL    HW2 1547   5.571   3.293   3.072 -0.3883  1.4939 -0.1068
  319SOL     OW 1548   3.819   4.537   0.282  0.3845 -0.0719 -1.1596
  319SOL    HW1 1549   3.843   4.444   0.282  1.2176  0.1353 -0.1908
  319SOL    HW2 1550   3.750   4.544   0.348 -0.5191 -0.1947 -2.0676
  320SOL     OW 1551   4.574   0.253   1.354  0.1636  0.4906  0.3423
  320SOL    HW1 1552   4.606   0.238   1.265 -0.4545 -0.9522  0.3385
  320SOL    HW2 1553   4.605   0.177   1.403  0.7629  1.4300  1.4422
  321SOL     OW 1554   0.630   2.716   0.228 -0.1805 -0.0750  0.1436
  321SOL    HW1 1555   0.622   2.743   0.319 -1.6547  0.8309 -0.2140
  321SOL    HW2 1556   0.622   2.798   0.178  0.3683 -0.5828 -0.8166
  322SOL     OW 1557   6.422   3.742   3.173  0.5293  0.9123  0.4066
  322SOL    HW1 1558   6.394   3.694   3.251  1.5210 -0.8900 -0.2905
  322SOL    HW2 1559   6.513   3.717   3.160  0.4168  1.2368 -1.2822
  323SOL     OW 1560   4.684   0.553   0.720 -0.0663 -0.2942  0.1200
  323SOL    HW1 1561   4.763   0.503   0.741  1.1237  1.9603  1.4017
  323SOL    HW2 1562   4.709   0.644   0.734 -2.2454  0.6873 -1.6663
  324SOL     OW 1563   4.039   3.029   0.418 -0.1995 -0.3271  0.1617
  324SOL    HW1 1564   3.973   2.961   0.409 -0.1643 -0.3943  0.4140
  324SOL    HW2 1565   4.000   3.106   0.376 -0.3357 -0.4344  0.0926
  325SOL     OW 1566   2.108   2.773   1.547 -0.1984  0.5121  0.1379
  325SOL    HW1 1567   2.051   2.721   1.603 -0.0855  1.1115  0.8224
  325SOL    HW2 1568   2.048   2.821   1.490 -0.2978 -0.5746 -0.7271
  326SOL     OW 1569   2.417   0.972   2.239 -0.2453 -0.1143 -0.3196
  326SOL    HW1 1570   2.471   0.896   2.221  0.2103  0.2361 -0.4638
  326SOL    HW2 1571   2.379   0.997   2.155  3.4154  2.6941 -1.4092
  327SOL     OW 1572   0.413   0.190   2.286  0.6381  0.0215  0.2866
  327SOL    HW1 1573   0.471   0.115   2.295 -1.5869 -2.1496 -1.6548
  327SOL    HW2 1574   0.345   0.176   2.351 -0.5591 -0.5212 -1.0228
  328SOL     OW 1575   2.666   4.959   2.632  0.3280  0.5509 -0.5464
  328SOL    HW1 1576   2.729   4.920   2.693 -0.3980 -1.5178 -1.0135
  328SOL    HW2 1577   2.590   4.900   2.636 -0.5725  1.5694 -1.8512
  329SOL     OW 1578   1.656   4.367   2.416  0.0107  0.7513  0.4619
  329SOL    HW1 1579   1.717   4.431   2.452 -0.5425  1.0415  0.8989
  329SOL    HW2 1580   1.658   4.294   2.478  2.2421 -0.6520 -1.0934
  330SOL     OW 1581   2.510   3.548   0.668  0.4034 -0.0161 -0.0332
  330SOL    HW1 1582   2.481   3.463   0.701 -1.5736  0.1503 -1.1537
  330SOL    HW2 1583   2.517   3.603   0.747  0.6860 -0.9315  0.5886
  331SOL     OW 1584   2.475   0.661   2.908  0.1341 -0.6878  0.1742
  331SOL    HW1 1585   2.492   0.579   2.862 -0.1972 -0.0979 -1.0375
  331SOL    HW2 1586   2.521   0.727   2.857  1.3194 -0.2379  1.7460
  332SOL     OW 1587   7.194   1.593   1.046  0.1245 -0.2987 -0.2848
  332SOL    HW1 1588   7.161   1.622   0.961  1.1399 -0.0556 -0.6066
  332SOL    HW2 1589   7.280   1.556   1.027 -0.0528 -1.1456  0.5010
  333SOL     OW 1590   0.808   1.476   2.578 -0.1151  0.2501  0.2124
  333SOL    HW1 1591   0.876   1.467   2.645 -0.8527 -0.3919  0.9081
  333SOL    HW2 1592   0.853   1.460   2.495  0.5764 -0.2020  0.6658
  334SOL     OW 1593   3.412   3.629   2.404 -0.1926 -0.0888 -0.3448
  334SOL    HW1 1594   3.417   3.724   2.412 -2.9907  0.0329  0.9932
  334SOL    HW2 1595   3.404   3.613   2.310 -2.6364  1.2818 -0.4520
  335SOL     OW 1596   0.989   3.442   0.174  0.2451  0.0567 -0.3157
  335SOL    HW1 1597   0.900   3.417   0.195 -0.5616  3.3942  0.9119
  335SOL    HW2 1598   1.044   3.375   0.214 -1.6219 -2.1701 -1.2576
  336SOL     OW 1599   5.390   3.478   1.777  0.0820  0.2176  0.2358
  336SOL    HW1 1600   5.300   3.508   1.765  0.0287  0.0877  0.3029
  336SOL    HW2 1601   5.444   3.553   1.755  0.0654 -0.4640 -2.4037
  337SOL     OW 1602   4.068   1.885   0.927  0.1297  0.0318  0.2805
  337SOL    HW1 1603   4.159   1.880   0.897  0.5385 -0.0248  1.4638
  337SOL    HW2 1604   4.025   1.810   0.888  0.3530  0.5649 -1.0432
  338SOL     OW 1605   0.911   4.336   2.141 -0.0299  0.5804 -0.1407
  338SOL    HW1 1606   0.925   4.364   2.231 -0.9267  0.0497  0.1808
  338SOL    HW2 1607   0.851   4.400   2.104 -0.8367 -0.0206  0.1073
  339SOL     OW 1608   0.706   2.856   0.919 -0.1112  0.0019 -0.2065
  339SOL    HW1 1609   0.642   2.787   0.904  1.6732 -1.6344 -0.7248
  339SOL    HW2 1610   0.746   2.871   0.833  0.6122  0.5376  0.2066
  340SOL     OW 1611   0.893   4.055   2.089 -0.0811 -0.6661 -0.2756
  340SOL    HW1 1612   0.808   4.057   2.134 -1.4467  0.4233 -2.6977
  340SOL    HW2 1613   0.938   4.134   2.119 -1.0933  0.2089 -0.9834
  341SOL     OW 1614   7.094   0.609   1.356  0.4710  0.5035 -0.0812
  341SOL    HW1 1615   7.087   0.683   1.296  0.3922  1.2811  0.8553
  341SOL    HW2 1616   7.102   0.650   1.443  0.9268 -0.5849  0.3979
  342SOL     OW 1617   3.449   1.596   1.029 -0.5168  0.3338 -0.6729
  342SOL    HW1 1618   3.360   1.617   1.058 -0.8972 -0.3349 -1.3387
  342SOL    HW2 1619   3.483   1.678   0.992 -1.5983  0.0981 -2.2748
  343SOL     OW 1620   5.701   4.274   2.589 -0.1597  0.0649 -0.4156
  343SOL    HW1 1621   5.785   4.279   2.634 -0.1317 -1.1512 -0.2769
  343SOL    HW2 1622   5.701   4.186   2.549 -1.0767  0.3100 -0.9830
  344SOL     OW 1623   4.918   0.473   3.044  0.1485 -0.2406  0.3859
  344SOL    HW1 1624   4.852   0.405   3.034 -0.7957  0.7175  0.0456
  344SOL    HW2 1625   4.943   0.468   3.137 -1.2364  0.1451  0.7933
  345SOL     OW 1626   2.881   1.716   3.202 -0.0373 -0.0455  0.0639
  345SOL    HW1 1627   2.870   1.622   3.217  1.9249 -0.4555 -0.6513
  345SOL    HW2 1628   2.805   1.742   3.151 -0.7010 -1.2049  0.4345
  346SOL     OW 1629   5.550   3.700   1.100  0.2236 -0.4730 -0.1790
  346SOL    HW1 1630   5.511   3.623   1.140  1.0987 -1.2705 -0.8181
  346SOL    HW2 1631   5.643   3.679   1.091  0.9709  1.5761  1.7878
  347SOL     OW 1632   0.587   5.007   3.361  0.7081 -0.0436 -0.7040
  347SOL    HW1 1633   0.586   5.097   3.328  1.2070  0.2237 -0.0082
  347SOL    HW2 1634   0.545   5.013   3.447 -0.8544 -0.7829 -1.3627
  348SOL     OW 1635   4.179   5.059   0.497 -0.4316 -0.6022 -0.4539
  348SOL    HW1 1636   4.104   5.097   0.543  0.4804  0.3103  0.3297
  348SOL    HW2 1637   4.183   5.108   0.415  0.5751  0.8748  0.4344
  349SOL     OW 1638   1.142   1.190   0.741 -0.1882  0.3681  0.3282
  349SOL    HW1 1639   1.198   1.206   0.666 -1.4454 -0.9658 -0.9645
  349SOL    HW2 1640   1.061   1.155   0.704 -1.1836  0.4909  2.2474
  350SOL     OW 1641   2.051   4.849   2.623 -0.0850  0.4703 -0.2584
  350SOL    HW1 1642   2.110   4.851   2.548 -0.3566 -0.0470 -0.4983
  350SOL    HW2 1643   2.053   4.758   2.653 -0.5150  0.5159 -0.0735
  351SOL     OW 1644   2.594   3.699   3.314 -0.3049 -0.1569 -0.3963
  351SOL    HW1 1645   2.557   3.630   3.369 -0.8385  1.9426  2.0593
  351SOL    HW2 1646   2.688   3.681   3.313 -0.4573 -1.0378  0.0325
  352SOL     OW 1647   4.668   2.272   0.469  0.5089 -0.2185 -0.0729
  352SOL    HW1 1648   4.636   2.277   0.559  0.6676 -1.1777  0.0496
  352SOL    HW2 1649   4.600   2.226   0.421  0.4345  0.2703 -0.4479
  353SOL     OW 1650   0.334   4.738   0.942 -0.3548 -0.3295 -0.0355
  353SOL    HW1 1651   0.424   4.747   0.911 -0.3429 -2.3427 -0.7648
  353SOL    HW2 1652   0.292   4.821   0.917  1.7492  1.5766  2.2661
  354SOL     OW 1653   6.407   0.105   3.148  0.2109  0.5487 -0.3079
  354SOL    HW1 1654   6.390   0.146   3.063  1.2778  0.5292 -0.5423
  354SOL    HW2 1655   6.493   0.138   3.174 -0.3359  0.9711  1.0318
  355SOL     OW 1656   0.252   3.216   2.494 -0.2743  0.0898 -0.3799
  355SOL    HW1 1657   0.325   3.170   2.452 -0.9249  0.0503 -1.5036
  355SOL    HW2 1658   0.180   3.153   2.493 -0.7513  0.6274 -0.6440
  356SOL     OW 1659   0.454   2.971   0.774 -0.2798 -0.2501  0.1698
  356SOL    HW1 1660   0.513   3.046   0.771  0.3357 -0.6237  1.8336
  356SOL    HW2 1661   0.510   2.898   0.800 -1.3344 -0.7665  1.0571
  357SOL     OW 1662   6.548   2.402   2.614 -0.4199 -0.1257  0.0534
  357SOL    HW1 1663   6.638   2.373   2.598  0.3924  1.9659  0.4740
  357SOL    HW2 1664   6.494   2.341   2.564  1.2319 -1.3542 -0.3263
  358SOL     OW 1665   2.802   4.528   0.367 -0.6585  0.1804  0.3701
  358SOL    HW1 1666   2.738   4.527   0.296  1.2220  0.3711 -1.4281
  358SOL    HW2 1667   2.878   4.482   0.332  0.4376  0.4718  2.1910
  359SOL     OW 1668   6.216   2.373   2.380 -0.5269 -0.2457  0.0414
  359SOL    HW1 1669   6.142   2.333   2.335 -0.4245 -0.8196  0.3705
  359SOL    HW2 1670   6.194   2.466   2.385 -0.7561 -0.2531 -0.7549
  360SOL     OW 1671   1.100   2.828   1.279 -0.1608  0.4411  0.4755
  360SOL    HW1 1672   1.008   2.803   1.271  0.1177 -0.5772  0.3626
  360SOL    HW2 1673   1.135   2.772   1.348  0.2708  1.1499  0.8466
  361SOL     OW 1674   3.375   1.752   2.483  0.4249 -0.5634 -0.1051
  361SOL    HW1 1675   3.304   1.687   2.482  0.1103 -0.2656 -1.9756
  361SOL    HW2 1676   3.362   1.802   2.402  2.1719  0.1785  0.0353
  362SOL     OW 1677   0.296   2.060   2.024 -0.0199 -0.3888 -0.0353
  362SOL    HW1 1678   0.322   2.068   2.116 -0.0297  0.0997 -0.0769
  362SOL    HW2 1679   0.378   2.048   1.977  0.0412  0.0198 -0.0361
  363SOL     OW 1680   1.522   2.865   3.035 -0.4492 -0.4196  0.3087
  363SOL    HW1 1681   1.475   2.945   3.057  1.6243  0.4806  1.8221
  363SOL    HW2 1682   1.484   2.837   2.952 -0.4488  2.8219 -0.9365
  364SOL     OW 1683   7.035   4.065   1.447 -0.5009 -0.2901  0.1835
  364SOL    HW1 1684   6.965   4.047   1.383 -1.2446 -0.4654  1.0251
  364SOL    HW2 1685   7.022   3.998   1.515  0.5372 -0.3645  0.3206
  365SOL     OW 1686   1.039   1.656   3.025  0.0716  0.0062 -0.4601
  365SOL    HW1 1687   0.951   1.687   3.049  0.5813  1.4743 -0.4262
  365SOL    HW2 1688   1.097   1.698   3.088  0.7172 -1.9916  0.3703
  366SOL     OW 1689   3.491   4.557   2.997  0.5935 -0.0509  0.6538
  366SOL    HW1 1690   3.475   4.483   2.940 -0.6425 -0.0768  0.9867
  366SOL    HW2 1691   3.513   4.629   2.938 -0.9562  0.0031  0.0827
  367SOL     OW 1692   6.322   0.645   2.128  0.1658 -0.1986 -0.0187
  367SOL    HW1 1693   6.311   0.637   2.222  2.1178 -2.8713  0.0949
  367SOL    HW2 1694   6.255   0.588   2.090  0.2129 -0.1382 -0.1965
  368SOL     OW 1695   1.153   1.306   1.453  0.7616  0.0112 -0.0296
  368SOL    HW1 1696   1.172   1.333   1.543 -1.6096  1.2338  0.1821
  368SOL    HW2 1697   1.168   1.211   1.453  1.0884  0.0357  1.5688
  369SOL     OW 1698   6.899   1.986   0.233 -0.3534 -0.0721 -0.4306
  369SOL    HW1 1699   6.935   1.951   0.314  0.0267  3.1383  0.9527
  369SOL    HW2 1700   6.815   2.023   0.259 -0.5416  0.3944 -1.6650
  370SOL     OW 1701   2.963   3.839   1.773 -0.5296  0.2540 -0.4686
  370SOL    HW1 1702   2.932   3.918   1.816  0.0778  0.3841 -0.2619
  370SOL    HW2 1703   2.886   3.783   1.766 -0.5826  0.0744  1.1160
  371SOL     OW 1704   6.290   4.849   2.955  0.1074 -0.3449  0.2740
  371SOL    HW1 1705   6.287   4.944   2.941 -1.3493 -0.0720  2.0695
  371SOL    HW2 1706   6.222   4.815   2.896 -0.6707 -0.0336  0.9609
  372SOL     OW 1707   6.001   0.775   1.592  0.4653 -0.1015 -0.1627
  372SOL    HW1 1708   5.927   0.822   1.630 -0.5986 -0.9228 -1.1711
  372SOL    HW2 1709   6.077   0.829   1.614 -0.5941  1.5338 -0.3603
  373SOL     OW 1710   3.218   0.693   1.467 -0.3584 -0.1435  0.1458
  373SOL    HW1 1711   3.164   0.637   1.523  0.8196 -0.8159  0.6469
  373SOL    HW2 1712   3.261   0.753   1.529 -0.1244  0.0388 -0.1911
  374SOL     OW 1713   0.874   1.155   2.169 -0.5074  0.7568  0.7868
  374SOL    HW1 1714   0.838   1.073   2.133 -0.0164 -0.1885  2.3496
  374SOL    HW2 1715   0.968   1.138   2.177 -0.2287  1.9000  0.0908
  375SOL     OW 1716   6.467   1.588   3.030 -0.2528  0.5677 -0.5320
  375SOL    HW1 1717   6.388   1.571   2.978 -0.3769  0.5658 -0.3448
  375SOL    HW2 1718   6.539   1.584   2.967 -0.4614  1.1751 -0.8178
  376SOL     OW 1719   1.668   1.851   2.875 -0.2090 -0.1163  0.5946
  376SOL    HW1 1720   1.747   1.862   2.926  0.5510  2.0243 -0.8798
  376SOL    HW2 1721   1.691   1.788   2.807  0.9692  1.9276 -1.0185
  377SOL     OW 1722   6.266   2.271   2.017  0.4000  0.1870  0.2740
  377SOL    HW1 1723   6.340   2.212   2.030  0.6290  0.4205  0.0254
  377SOL    HW2 1724   6.222   2.272   2.102  0.1958 -0.6073  0.1859
  378SOL     OW 1725   6.186   0.049   0.504 -0.3365 -0.2662  0.4857
  378SOL    HW1 1726   6.143  -0.007   0.568  0.8297  0.7867  2.3027
  378SOL    HW2 1727   6.260   0.087   0.552 -1.0093  2.7433 -0.6464
  379SOL     OW 1728   1.716   3.869   3.395 -0.0112  0.4051 -0.3255
  379SOL    HW1 1729   1.741   3.901   3.308  0.3616 -0.6452 -0.6203
  379SOL    HW2 1730   1.622   3.885   3.400  0.3671  2.8960  0.1390
  380SOL     OW 1731   3.936   5.264   0.321  0.3418 -0.2232 -0.8574
  380SOL    HW1 1732   3.947   5.352   0.358 -0.5957 -0.0578 -0.9413
  380SOL    HW2 1733   4.025   5.230   0.312  0.7654  1.0102 -1.5409
  381SOL     OW 1734   7.333   3.958   0.040 -0.0477 -0.1638  0.2885
  381SOL    HW1 1735   7.395   4.026   0.013 -0.6778  1.1939  2.0269
  381SOL    HW2 1736   7.251   4.005   0.053 -1.2153 -1.7512 -0.9740
  382SOL     OW 1737   4.669   4.377   1.274  0.3287  0.8484 -0.3322
  382SOL    HW1 1738   4.597   4.394   1.213  1.0406  1.5691 -0.9943
  382SOL    HW2 1739   4.654   4.437   1.347  0.6381  1.5207 -0.8084
  383SOL     OW 1740   6.083   4.654   1.932 -0.3587 -0.2236 -0.1533
  383SOL    HW1 1741   6.101   4.560   1.930 -1.0839 -0.4002  0.7720
  383SOL    HW2 1742   6.107   4.681   2.020  0.1526  0.5364 -0.5204
  384SOL     OW 1743   5.313   0.959   2.006 -0.3406  0.0201 -0.7518
  384SOL    HW1 1744   5.223   0.971   1.977 -1.1685  0.7073  1.8195
  384SOL    HW2 1745   5.329   1.032   2.066  2.0274  0.0529 -1.3250
  385SOL     OW 1746   1.767   0.704   0.382 -0.0462  0.5930 -0.0074
  385SOL    HW1 1747   1.702   0.634   0.388  1.3580 -0.9267 -1.6471
  385SOL    HW2 1748   1.761   0.734   0.291  0.7521  1.2341  0.1417
  386SOL     OW 1749   6.790   2.871   2.657 -0.8057  0.3213 -0.3788
  386SOL    HW1 1750   6.756   2.796   2.706  1.3268  0.5894  1.6657
  386SOL    HW2 1751   6.882   2.876   2.681 -0.5064  2.6437 -1.7373
  387SOL     OW 1752   4.448   4.331   2.683  0.3310  0.3320  0.0180
  387SOL    HW1 1753   4.517   4.301   2.743  1.3466  1.1340 -0.7001
  387SOL    HW2 1754   4.464   4.282   2.603 -1.6538 -1.4981  0.6552
  388SOL     OW 1755   6.609   3.295   0.905 -0.1850 -0.5941 -0.0891
  388SOL    HW1 1756   6.530   3.242   0.906 -0.8577  0.3851  1.1607
  388SOL    HW2 1757   6.602   3.347   0.825  0.5144 -2.3566 -1.3620
  389SOL     OW 1758   3.759   3.903   2.184 -0.1907 -0.1813 -0.0220
  389SOL    HW1 1759   3.847   3.894   2.147 -0.5484  0.3989 -1.0550
  389SOL    HW2 1760   3.738   3.816   2.218  0.8858 -0.2581  0.5107
  390SOL     OW 1761   6.364   4.444   2.574 -0.1099 -0.2293  0.2382
  390SOL    HW1 1762   6.344   4.521   2.627  1.2314  0.6113 -0.4196
  390SOL    HW2 1763   6.458   4.429   2.589 -0.0317 -0.8260 -0.7766
  391SOL     OW 1764   4.469   5.254   2.563 -0.0371  0.4833  0.4751
  391SOL    HW1 1765   4.430   5.278   2.479 -0.9176 -2.5026 -0.1040
  391SOL    HW2 1766   4.483   5.159   2.556  2.2509  0.5560  2.7760
  392SOL     OW 1767   0.046   1.899   0.524  0.4659  0.0029  0.4852
  392SOL    HW1 1768   0.075   1.808   0.530 -1.0601 -0.4791  0.9968
  392SOL    HW2 1769   0.048   1.930   0.615  1.1910  0.5632  0.2851
  393SOL     OW 1770   0.735   1.518   1.571 -0.0785  0.2133  0.3538
  393SOL    HW1 1771   0.671   1.583   1.541 -0.8354 -1.3390 -1.6634
  393SOL    HW2 1772   0.819   1.551   1.540 -0.5428 -0.0678 -1.3116
  394SOL     OW 1773   5.307   4.222   2.005 -0.4038  0.0886 -0.3068
  394SOL    HW1 1774   5.363   4.226   1.928  0.4056  0.1092  0.2731
  394SOL    HW2 1775   5.221   4.196   1.971  0.2921 -1.3955 -1.0306
  395SOL     OW 1776   0.216   1.627   1.893  0.0657 -0.1654  0.2354
  395SOL    HW1 1777   0.149   1.695   1.883 -0.1868 -0.5156 -0.5270
  395SOL    HW2 1778   0.294   1.674   1.921  0.5179  0.7760 -2.3288
  396SOL     OW 1779   1.543   2.078   2.521  0.3316 -0.2884 -0.2819
  396SOL    HW1 1780   1.638   2.078   2.530  0.3291  0.8115 -0.1999
  396SOL    HW2 1781   1.525   2.139   2.449 -0.3015 -0.7306 -0.5145
  397SOL     OW 1782   6.557   0.420   2.247  0.2499  0.2631 -0.0435
  397SOL    HW1 1783   6.591   0.506   2.220 -1.9163  0.9064 -0.9520
  397SOL    HW2 1784   6.468   0.418   2.212 -0.2593 -1.7796  1.2292
  398SOL     OW 1785   5.439   0.269   1.153 -0.1814 -0.5460  0.5420
  398SOL    HW1 1786   5.503   0.256   1.224 -0.4360 -2.0913  0.5284
  398SOL    HW2 1787   5.475   0.340   1.100  1.0541 -0.7631  1.0627
  399SOL     OW 1788   6.488   1.319   0.379 -0.3605 -0.2365  0.2924
  399SOL    HW1 1789   6.578   1.345   0.361 -0.7995  0.7475 -0.5816
  399SOL    HW2 1790   6.478   1.330   0.474  0.3490 -0.0925  0.3536
  400SOL     OW 1791   3.446   3.642   0.536  0.3068  0.4547 -0.5524
  400SOL    HW1 1792   3.400   3.726   0.534 -0.8273 -0.1226  0.5495
  400SOL    HW2 1793   3.414   3.595   0.459 -0.1223  0.4891 -0.3964
  401SOL     OW 1794   2.321   4.883   3.041 -0.0158  0.0208  0.0860
  401SOL    HW1 1795   2.273   4.824   2.983  0.6280  0.5616 -1.0306
  401SOL    HW2 1796   2.382   4.929   2.984  0.0520  1.2043  1.0589
  402SOL     OW 1797   1.803   1.052   0.174 -0.2134 -0.8841 -0.7589
  402SOL    HW1 1798   1.857   1.051   0.253 -0.5424  0.0635 -0.5120
  402SOL    HW2 1799   1.864   1.030   0.103  0.6168  0.5838 -0.5388
  403SOL     OW 1800   4.190   0.129   0.147 -0.3110 -0.3629  0.5432
  403SOL    HW1 1801   4.270   0.151   0.099  0.2758  0.5289  1.8837
  403SOL    HW2 1802   4.120   0.172   0.097  0.0288 -1.0835 -0.5933
  404SOL     OW 1803   1.733   2.793   1.846 -0.0405  0.4279  0.4563
  404SOL    HW1 1804   1.784   2.841   1.912 -0.3315 -0.6839  1.5259
  404SOL    HW2 1805   1.678   2.733   1.897  0.5299 -1.2756 -0.8432
  405SOL     OW 1806   4.118   3.949   2.543  0.2440  0.5674  0.0364
  405SOL    HW1 1807   4.079   3.863   2.556 -0.2922  0.5145 -1.6748
  405SOL    HW2 1808   4.128   3.985   2.631 -2.3926  0.0167  0.6430
  406SOL     OW 1809   4.877   4.688   2.412  0.1577 -0.4836  0.2191
  406SOL    HW1 1810   4.906   4.608   2.369  3.0206  1.1095 -1.1632
  406SOL    HW2 1811   4.933   4.696   2.489  0.3923  0.4765 -0.0261
  407SOL     OW 1812   3.712   2.321   2.464 -0.2939  0.3608  0.1446
  407SOL    HW1 1813   3.797   2.354   2.435  0.7765 -1.1868  1.3449
  407SOL    HW2 1814   3.649   2.386   2.433  1.4598  2.3118  0.4728
  408SOL     OW 1815   2.639   4.034   0.679 -0.1084  0.3338  0.6145
  408SOL    HW1 1816   2.555   4.011   0.719 -0.2608  1.4495  0.9734
  408SOL    HW2 1817   2.660   4.120   0.715 -0.2642  1.4150 -1.6885
  409SOL     OW 1818   0.624   2.902   0.035 -0.4523 -0.3338 -0.7816
  409SOL    HW1 1819   0.537   2.938   0.016  0.8207  4.2701  0.7198
  409SOL    HW2 1820   0.675   2.923  -0.043  0.3468  1.4550  0.1682
  410SOL     OW 1821   1.121   4.978   0.560 -0.3665 -0.1109 -0.0476
  410SOL    HW1 1822   1.178   5.049   0.531  0.7426 -0.8662  0.2571
  410SOL    HW2 1823   1.093   5.005   0.648 -0.4696  0.2438 -0.1861
  411SOL     OW 1824   2.216   2.582   3.437  0.3611  0.7010 -0.1354
  411SOL    HW1 1825   2.131   2.598   3.477  1.3716 -2.3386  3.8689
  411SOL    HW2 1826   2.272   2.653   3.469  0.4569 -0.1340  1.6838
  412SOL     OW 1827   6.588   3.229   0.567 -0.2447 -0.7719  0.1287
  412SOL    HW1 1828   6.537   3.285   0.625 -1.2677  2.0015 -3.1071
  412SOL    HW2 1829   6.673   3.272   0.559  0.6113 -2.2037  0.9822
  413SOL     OW 1830   3.462   1.752   0.668  0.4642 -0.3842 -0.3384
  413SOL    HW1 1831   3.452   1.657   0.677 -0.1543 -0.1748  1.6149
  413SOL    HW2 1832   3.557   1.765   0.671  0.5919 -0.9621 -1.2518
  414SOL     OW 1833   0.330   0.207   2.766 -0.1479  0.0821  0.5330
  414SOL    HW1 1834   0.316   0.297   2.795  0.4783  0.8211 -1.2711
  414SOL    HW2 1835   0.245   0.164   2.779 -0.5229  0.9872  1.1978
  415SOL     OW 1836   1.237   4.265   1.863  0.6691 -0.0288 -0.2918
  415SOL    HW1 1837   1.249   4.358   1.881 -1.8264  0.3066 -0.0005
  415SOL    HW2 1838   1.238   4.223   1.949 -0.9927  0.1557 -0.1527
  416SOL     OW 1839   1.687   2.748   1.426 -0.4708  0.8854 -0.0378
  416SOL    HW1 1840   1.610   2.730   1.373 -1.3908  0.7981  1.2685
  416SOL    HW2 1841   1.656   2.810   1.493  0.0327 -0.6683  1.7296
  417SOL     OW 1842   0.731   3.473   1.968 -0.1729 -0.1022 -0.0674
  417SOL    HW1 1843   0.664   3.478   2.036 -1.1924  0.8793 -1.1107
  417SOL    HW2 1844   0.745   3.564   1.941  2.8178 -0.0455  1.2446
  418SOL     OW 1845   6.286   0.379   3.400  0.4141 -0.4775  0.2484
  418SOL    HW1 1846   6.218   0.372   3.467  0.6341  0.4031  0.5798
  418SOL    HW2 1847   6.238   0.402   3.320  0.4994  3.3491  1.1035
  419SOL     OW 1848   0.264   2.835   0.553  0.2270  0.1079 -0.3917
  419SOL    HW1 1849   0.262   2.762   0.614  1.0705  0.1251 -0.3210
  419SOL    HW2 1850   0.258   2.913   0.608  0.9248  0.1219 -0.3256
  420SOL     OW 1851   0.161   1.726   2.237 -0.8302 -0.5766 -0.3900
  420SOL    HW1 1852   0.094   1.703   2.302 -0.5765  0.6105  0.3184
  420SOL    HW2 1853   0.242   1.688   2.272 -1.2171 -2.6857 -1.6321
  421SOL     OW 1854   3.035   2.728   0.329 -0.5687  0.5049 -0.0183
  421SOL    HW1 1855   3.067   2.658   0.385 -0.5823 -0.4613 -1.1776
  421SOL    HW2 1856   2.946   2.701   0.305 -0.6191  0.9840 -0.3788
  422SOL     OW 1857   0.013   3.548   2.068 -0.0916 -0.2125 -0.2245
  422SOL    HW1 1858  -0.043   3.470   2.060  0.1350 -0.5556  1.3048
  422SOL    HW2 1859  -0.031   3.603   2.133  0.6297  0.1618 -0.0469
  423SOL     OW 1860   6.808   5.276   0.672 -0.2708  0.8191 -0.3252
  423SOL    HW1 1861   6.865   5.328   0.729  0.4952 -0.0459 -0.2735
  423SOL    HW2 1862   6.740   5.242   0.730 -0.3229  1.1239 -0.2089
  424SOL     OW 1863   5.517   4.933   0.752 -0.2905  0.1611 -0.0560
  424SOL    HW1 1864   5.460   4.857   0.746 -0.7184  0.5026 -0.3583
  424SOL    HW2 1865   5.489   4.978   0.832  0.4118 -0.3537  0.4922
  425SOL     OW 1866   6.774   3.707   1.239 -0.6269 -0.4669 -0.0812
  425SOL    HW1 1867   6.737   3.673   1.157  0.0888 -0.8063 -0.2684
  425SOL    HW2 1868   6.860   3.665   1.246  0.2340  1.1873 -0.2438
  426SOL     OW 1869   5.967   4.134   1.751 -0.2944  0.6899 -0.2272
  426SOL    HW1 1870   5.957   4.140   1.656 -0.9620  0.1591 -0.1947
  426SOL    HW2 1871   5.911   4.203   1.786 -1.2514 -0.0919 -0.1732
  427SOL     OW 1872   0.194   3.938   0.629 -0.2403 -0.1155 -0.1592
  427SOL    HW1 1873   0.236   3.863   0.586  0.2902 -1.4955  2.5178
  427SOL    HW2 1874   0.265   3.980   0.677 -0.9816  0.6882  0.2520
  428SOL     OW 1875   3.588   4.912   2.599 -0.8306 -0.0074 -0.5733
  428SOL    HW1 1876   3.603   5.007   2.595 -0.4085 -0.1003 -1.2158
  428SOL    HW2 1877   3.493   4.903   2.587 -1.0257  0.3850  0.5008
  429SOL     OW 1878   6.335   3.882   2.460  0.2050  0.5966  0.3424
  429SOL    HW1 1879   6.410   3.884   2.519 -1.6255  0.6240  2.8129
  429SOL    HW2 1880   6.275   3.817   2.498 -2.2599  2.5740  0.1598
  430SOL     OW 1881   1.317   5.174   3.346  0.4807 -0.1586  0.2401
  430SOL    HW1 1882   1.367   5.124   3.281  2.4666 -0.6254  2.0423
  430SOL    HW2 1883   1.382   5.208   3.406 -1.2372  0.8440  1.6373
  431SOL     OW 1884   3.772   4.000   3.323  0.4928  0.4118 -0.2557
  431SOL    HW1 1885   3.855   4.036   3.353  0.7677  1.7537 -2.4239
  431SOL    HW2 1886   3.797   3.936   3.256 -0.2128  1.0430 -1.1357
  432SOL     OW 1887   5.145   2.489   2.871  0.5560  0.2870 -0.1591
  432SOL    HW1 1888   5.134   2.506   2.777 -0.1332 -0.5532 -0.2334
  432SOL    HW2 1889   5.058   2.501   2.908  1.1880  2.7226  0.7463
  433SOL     OW 1890   2.122   1.924   2.860  0.1188 -0.4033 -0.2435
  433SOL    HW1 1891   2.172   2.005   2.863  0.3048 -0.4565 -1.4761
  433SOL    HW2 1892   2.100   1.912   2.768  0.0601 -1.7328 -0.0836
  434SOL     OW 1893   2.601   5.013   1.478 -0.1977 -0.6505  0.4415
  434SOL    HW1 1894   2.622   4.960   1.555  0.4363 -0.2769  0.5354
  434SOL    HW2 1895   2.519   5.056   1.500 -1.9489 -3.2732 -0.5055
  435SOL     OW 1896   1.348   3.695   1.286  0.5318 -0.1604 -0.1731
  435SOL    HW1 1897   1.263   3.657   1.308  0.6120  0.0891  0.6194
  435SOL    HW2 1898   1.327   3.775   1.238  0.3454 -0.6540 -0.9228
  436SOL     OW 1899   2.679   0.440   3.204  0.2127 -0.0220 -0.4634
  436SOL    HW1 1900   2.735   0.363   3.192  0.5758  0.2459 -0.5287
  436SOL    HW2 1901   2.590   0.406   3.203  0.3294 -0.3297 -1.4332
  437SOL     OW 1902   3.867   1.026   2.255 -0.4350  0.0565 -0.0042
  437SOL    HW1 1903   3.884   0.988   2.169  0.0927 -0.8288  0.4661
  437SOL    HW2 1904   3.851   1.118   2.239 -1.5252 -0.3244 -1.1790
  438SOL     OW 1905   3.521   4.173   1.833  0.3053 -0.1814  0.5185
  438SOL    HW1 1906   3.514   4.106   1.764 -1.1941 -0.4685  0.9191
  438SOL    HW2 1907   3.572   4.243   1.793 -0.6107 -0.3034 -0.9404
  439SOL     OW 1908   2.907   3.899   0.644 -0.0602 -0.4218 -0.2131
  439SOL    HW1 1909   2.819   3.936   0.646  1.1664  2.8212 -0.5152
  439SOL    HW2 1910   2.898   3.814   0.687 -3.5944 -0.9562 -1.6982
  440SOL     OW 1911   3.262   2.023   2.726  0.3903 -0.2397 -0.1254
  440SOL    HW1 1912   3.256   2.082   2.651  0.0176 -1.1989 -0.8710
  440SOL    HW2 1913   3.356   2.012   2.740  0.4623 -0.0045 -0.4042
  441SOL     OW 1914   6.620   5.137   1.338  0.0003 -0.1044  0.3208
  441SOL    HW1 1915   6.538   5.136   1.387 -0.2668 -0.3309 -0.1133
  441SOL    HW2 1916   6.594   5.118   1.248  0.3713  1.2235 -0.0845
  442SOL     OW 1917   2.409   5.256   2.147 -0.0099 -0.1588  0.1559
  442SOL    HW1 1918   2.385   5.272   2.056  0.5305  0.7148  0.1549
  442SOL    HW2 1919   2.457   5.334   2.173  1.2559 -1.0880  0.7092
  443SOL     OW 1920   6.043   0.986   0.671 -0.1127 -0.0054 -0.0096
  443SOL    HW1 1921   6.125   0.950   0.638  0.3543  0.7738  0.2566
  443SOL    HW2 1922   6.070   1.042   0.745 -0.8619  0.3714 -0.0158
  444SOL     OW 1923   4.605   4.277   2.197  0.1958  0.1321 -0.3768
  444SOL    HW1 1924   4.549   4.284   2.119 -0.0708  0.5633 -0.1489
  444SOL    HW2 1925   4.693   4.289   2.163  0.1036  0.0588 -0.6520
  445SOL     OW 1926   5.998   4.808   3.317  0.0882 -0.5894  0.0243
  445SOL    HW1 1927   5.975   4.900   3.298 -0.4726 -0.7601 -0.1499
  445SOL    HW2 1928   6.052   4.782   3.243  0.3499 -0.3595  0.1345
  446SOL     OW 1929   1.509   5.061   0.994  0.8802 -0.3934 -0.4020
  446SOL    HW1 1930   1.458   4.988   1.027  2.8070 -2.1769 -1.1132
  446SOL    HW2 1931   1.498   5.130   1.060 -3.5641  0.0079 -1.2557
  447SOL     OW 1932   3.981   1.194   0.625 -0.1384 -0.6105  0.3157
  447SOL    HW1 1933   3.910   1.251   0.653 -0.3369 -0.6227 -0.1522
  447SOL    HW2 1934   4.051   1.208   0.689 -0.6100 -0.6990  0.8605
  448SOL     OW 1935   1.258   4.360   3.052 -0.1685  0.1127 -0.2178
  448SOL    HW1 1936   1.236   4.434   3.108 -1.1637  0.9244 -1.6097
  448SOL    HW2 1937   1.195   4.364   2.980  0.5017 -1.3926 -0.9526
  449SOL     OW 1938   2.712   1.946   2.800  0.1272  0.5228 -0.0724
  449SOL    HW1 1939   2.736   1.922   2.711  0.1453  1.2962 -0.2885
  449SOL    HW2 1940   2.662   2.027   2.789 -0.5372  0.2070  0.5593
  450SOL     OW 1941   0.919   2.611   0.964 -0.3499  0.0648 -0.7736
  450SOL    HW1 1942   0.911   2.516   0.954  1.0239 -0.1541 -0.1758
  450SOL    HW2 1943   0.929   2.644   0.875  2.0432 -0.7192 -0.8759
  451SOL     OW 1944   4.947   0.463   0.680  0.1005 -0.1315  0.2003
  451SOL    HW1 1945   5.014   0.490   0.617  0.6065 -1.4169  0.1580
  451SOL    HW2 1946   4.992   0.465   0.765 -0.1582  0.1543  0.3337
  452SOL     OW 1947   1.087   5.262   1.805  0.0785  0.2104  0.0121
  452SOL    HW1 1948   1.133   5.294   1.727 -0.4797 -1.3360 -0.9781
  452SOL    HW2 1949   1.154   5.262   1.874  0.3302  2.5697 -0.1523
  453SOL     OW 1950   5.150   0.925   1.108  0.0673  0.1357  0.1723
  453SOL    HW1 1951   5.069   0.976   1.117 -1.4698 -2.2118  0.5147
  453SOL    HW2 1952   5.192   0.931   1.194  0.3747  1.4867 -0.0488
  454SOL     OW 1953   3.517   5.019   1.125 -0.0089  0.1323 -0.2031
  454SOL    HW1 1954   3.472   4.939   1.153  1.9122 -0.3043  1.9796
  454SOL    HW2 1955   3.447   5.082   1.109 -1.5140 -0.6144  2.6814
  455SOL     OW 1956   6.211   4.728   0.011 -0.0667  0.0811  0.4342
  455SOL    HW1 1957   6.137   4.778  -0.023  0.5820  0.2605 -0.8116
  455SOL    HW2 1958   6.200   4.640  -0.025  1.0944  0.4969 -1.0974
  456SOL     OW 1959   2.606   4.839   3.241 -0.1644 -0.7488 -0.1351
  456SOL    HW1 1960   2.654   4.885   3.172  1.6535 -0.3890  1.3031
  456SOL    HW2 1961   2.666   4.771   3.271 -0.7443 -0.6220  1.3664
  457SOL     OW 1962   3.181   4.586   2.580  0.1581  0.3170  0.5089
  457SOL    HW1 1963   3.157   4.637   2.503  1.7093  0.5423  0.1530
  457SOL    HW2 1964   3.222   4.650   2.639  1.5831 -0.3680  0.3008
  458SOL     OW 1965   4.086   1.080   3.032  0.2759 -0.3029  0.1033
  458SOL    HW1 1966   4.014   1.071   2.970  0.3873  0.6582 -0.1832
  458SOL    HW2 1967   4.064   1.157   3.083  2.3354  1.6933 -1.7693
  459SOL     OW 1968   4.895   1.055   2.847 -0.3933 -0.4724  0.1081
  459SOL    HW1 1969   4.802   1.050   2.825 -1.0314  1.0243  2.1799
  459SOL    HW2 1970   4.906   0.990   2.917 -0.1062 -0.0467  0.4652
  460SOL     OW 1971   6.384   0.905   0.931 -0.1901 -0.3115  0.6172
  460SOL    HW1 1972   6.295   0.934   0.912  0.2741  1.0337  0.3572
  460SOL    HW2 1973   6.396   0.828   0.875 -1.1280 -0.4165  0.5362
  461SOL     OW 1974   7.175   3.722   0.018  0.1697 -0.1425  0.0107
  461SOL    HW1 1975   7.142   3.735  -0.070  2.1180 -1.3802 -0.9812
  461SOL    HW2 1976   7.219   3.804   0.040  0.1279 -0.0138 -0.3765
  462SOL     OW 1977   5.792   2.361   2.471  0.9444 -0.1050  0.5299
  462SOL    HW1 1978   5.858   2.389   2.408  0.6837  0.7523  0.6345
  462SOL    HW2 1979   5.842   2.331   2.547  1.3137 -2.1872 -0.4497
  463SOL     OW 1980   4.485   0.698   0.465  0.3270  0.6473 -0.0756
  463SOL    HW1 1981   4.447   0.776   0.506  0.4180  0.4800  0.3268
  463SOL    HW2 1982   4.492   0.721   0.372 -2.5766  0.0039 -0.5529
  464SOL     OW 1983   6.642   2.641   1.147  0.2430 -0.7967 -0.2630
  464SOL    HW1 1984   6.666   2.715   1.092  0.5653 -0.4985  0.2671
  464SOL    HW2 1985   6.561   2.668   1.190 -0.7584 -1.5695 -1.6052
  465SOL     OW 1986   2.358   3.205   1.021 -0.0105 -0.4410 -0.1353
  465SOL    HW1 1987   2.294   3.190   1.091 -0.2130  1.4041  0.1153
  465SOL    HW2 1988   2.396   3.119   1.004 -2.6442 -1.6428 -0.3863
  466SOL     OW 1989   4.812   3.626   2.608  1.3554  0.0282 -0.4242
  466SOL    HW1 1990   4.783   3.691   2.544 -0.0307  0.1710  0.3070
  466SOL    HW2 1991   4.841   3.551   2.555 -1.1919 -0.4599 -1.2686
  467SOL     OW 1992   1.149   3.935   2.469 -0.5081  0.3491 -0.3040
  467SOL    HW1 1993   1.197   3.906   2.547 -0.7933 -0.4317 -0.4109
  467SOL    HW2 1994   1.102   3.857   2.440  0.4616  0.3320 -1.8990
  468SOL     OW 1995   4.544   3.391   0.309 -0.4179 -0.0595  0.5919
  468SOL    HW1 1996   4.585   3.454   0.369  0.1878 -0.6224  0.7706
  468SOL    HW2 1997   4.556   3.430   0.222 -0.0977  0.1036  0.7075
  469SOL     OW 1998   2.312   0.040   2.944 -0.4957 -0.3414  0.1778
  469SOL    HW1 1999   2.304   0.025   3.038  1.7321  0.0141  0.4736
  469SOL    HW2 2000   2.404   0.023   2.924 -1.0593 -1.1209 -2.0935
  470SOL     OW 2001   5.855   4.197   2.820  0.4683 -0.3121  0.6141
  470SOL    HW1 2002   5.941   4.154   2.817 -0.3543 -2.0686  0.8203
  470SOL    HW2 2003   5.802   4.139   2.875 -0.7473  0.9486  0.7984
  471SOL     OW 2004   0.635   5.246   0.228  0.1714  0.0969 -0.6179
  471SOL    HW1 2005   0.566   5.210   0.173 -3.2398  0.4198  3.0261
  471SOL    HW2 2006   0.643   5.337   0.200  0.2757 -0.3341 -2.0724
  472SOL     OW 2007   4.588   1.007   2.970 -0.2576  0.0567 -0.1579
  472SOL    HW1 2008   4.591   0.973   2.881 -1.6883  1.7097 -0.9069
  472SOL    HW2 2009   4.496   0.998   2.997  0.4588 -2.1179  1.9189
  473SOL     OW 2010   3.848   1.309   3.383  0.2589 -0.1994  0.2779
  473SOL    HW1 2011   3.760   1.327   3.415 -0.6475  1.5589 -2.8194
  473SOL    HW2 2012   3.902   1.380   3.420  0.0567 -0.3198  0.8186
  474SOL     OW 2013   6.299   0.925   3.074 -0.6473  0.2604 -0.5924
  474SOL    HW1 2014   6.357   0.886   3.139  0.2861  2.1914 -0.2010
  474SOL    HW2 2015   6.218   0.876   3.082 -0.4036  0.1267  1.7142
  475SOL     OW 2016   0.858   1.232   3.387  0.0375 -0.3111 -0.5213
  475SOL    HW1 2017   0.790   1.166   3.397 -0.9497  0.7789  0.2609
  475SOL    HW2 2018   0.856   1.257   3.295 -0.4896 -0.4292 -0.5395
  476SOL     OW 2019   0.134   5.024   0.128  0.5399 -0.4937  0.7872
  476SOL    HW1 2020   0.187   4.960   0.177 -0.5169 -0.3402  2.1855
  476SOL    HW2 2021   0.062   4.973   0.093  1.7443 -0.7780 -1.4628
  477SOL     OW 2022   1.136   1.282   0.286 -1.1407 -0.8890  0.3246
  477SOL    HW1 2023   1.070   1.346   0.313 -0.5313 -0.0482 -0.1193
  477SOL    HW2 2024   1.136   1.287   0.190  0.7476  0.4120  0.3300
  478SOL     OW 2025   6.751   1.034   1.002 -0.0030 -0.5154 -0.3690
  478SOL    HW1 2026   6.748   1.100   1.071  1.1046 -0.7799 -0.0538
  478SOL    HW2 2027   6.682   0.972   1.026 -1.6534  0.9242 -1.1324
  479SOL     OW 2028   2.306   3.759   0.051  0.5303 -0.7585  0.0242
  479SOL    HW1 2029   2.375   3.697   0.076  1.5609  0.1867 -0.4132
  479SOL    HW2 2030   2.271   3.791   0.134  2.8805  1.2075  0.3553
  480SOL     OW 2031   3.522   5.311   2.270  0.1838  0.1848 -0.3384
  480SOL    HW1 2032   3.428   5.303   2.254  0.1508 -0.3754  0.1141
  480SOL    HW2 2033   3.547   5.228   2.311  0.7454  0.5841  0.1469
  481SOL     OW 2034   6.674   1.266   3.111  0.1251 -0.5522  0.4345
  481SOL    HW1 2035   6.730   1.198   3.071  1.5332  0.7206  0.1507
  481SOL    HW2 2036   6.612   1.290   3.042 -0.3501 -1.4980  0.5195
  482SOL     OW 2037   0.896   2.534   1.815 -0.0742 -0.0305 -0.5531
  482SOL    HW1 2038   0.868   2.499   1.899  0.1834  0.8786 -0.0888
  482SOL    HW2 2039   0.930   2.457   1.768 -1.9330 -0.8863 -0.5719
  483SOL     OW 2040   0.360   5.078   1.867 -0.6062  0.3883 -0.0809
  483SOL    HW1 2041   0.369   5.126   1.785  1.2352 -2.8808 -2.0359
  483SOL    HW2 2042   0.434   5.108   1.920 -0.6684  1.1455 -0.4106
  484SOL     OW 2043   4.684   3.125   0.859 -0.5875  0.1606 -0.0210
  484SOL    HW1 2044   4.657   3.062   0.793  1.6104 -0.7406 -0.1319
  484SOL    HW2 2045   4.621   3.114   0.930 -2.1860  0.2127 -1.3663
  485SOL     OW 2046   5.556   4.310   2.835  0.1910 -0.9176  0.0755
  485SOL    HW1 2047   5.576   4.219   2.859  2.0033 -0.1738  1.6611
  485SOL    HW2 2048   5.609   4.328   2.758 -1.0613 -1.5168 -0.9578
  486SOL     OW 2049   5.118   0.903   0.854 -0.5447 -0.2046  0.2889
  486SOL    HW1 2050   5.118   0.930   0.946  1.2339  1.3605 -0.1094
  486SOL    HW2 2051   5.141   0.982   0.805  0.4784 -1.4292 -1.3460
  487SOL     OW 2052   4.165   0.975   0.752 -0.0511 -0.1420 -0.0466
  487SOL    HW1 2053   4.168   0.930   0.668  1.2689 -0.2364  0.0265
  487SOL    HW2 2054   4.169   1.068   0.730  0.0897 -0.1601 -0.1004
  488SOL     OW 2055   1.356   0.351   3.279  0.5431  0.1215 -0.3024
  488SOL    HW1 2056   1.378   0.354   3.372  0.3250 -1.4491 -0.1836
  488SOL    HW2 2057   1.384   0.264   3.250 -0.6903  0.0471 -1.3672
  489SOL     OW 2058   6.865   5.266   0.169  0.6125  0.9794  0.2160
  489SOL    HW1 2059   6.939   5.262   0.231  0.4855  0.3030  0.3340
  489SOL    HW2 2060   6.904   5.244   0.084  0.5704  0.7494  0.2563
  490SOL     OW 2061   2.773   2.756   2.874 -0.1628  0.4266  0.3963
  490SOL    HW1 2062   2.727   2.797   2.801 -1.3790  0.5810  1.2197
  490SOL    HW2 2063   2.746   2.664   2.871 -0.0069  0.3769  0.4911
  491SOL     OW 2064   0.079   2.822   0.820 -0.0092  0.4056 -0.6755
  491SOL    HW1 2065   0.139   2.886   0.860  1.0226 -0.9540  0.0558
  491SOL    HW2 2066   0.088   2.744   0.875 -1.4824 -0.2745 -1.3501
  492SOL     OW 2067   2.218   2.987   3.358 -0.4921  0.1496  0.4224
  492SOL    HW1 2068   2.272   3.003   3.280 -0.3210 -0.9831  0.3018
  492SOL    HW2 2069   2.191   3.075   3.386 -1.0836  0.5568 -1.2811
  493SOL     OW 2070   3.098   4.507   1.457 -0.0377  1.0960 -0.1142
  493SOL    HW1 2071   3.066   4.552   1.536 -3.2896 -1.2020  0.0723
  493SOL    HW2 2072   3.037   4.434   1.445  1.0722  0.6006 -4.0961
  494SOL     OW 2073   7.206   0.036   2.677  0.3534 -0.3934  0.5055
  494SOL    HW1 2074   7.159   0.007   2.599  0.8578  1.1951 -0.4367
  494SOL    HW2 2075   7.143   0.028   2.748 -0.9837  0.5427 -0.5312
  495SOL     OW 2076   5.155   0.411   1.576  0.2552  0.4061 -0.5530
  495SOL    HW1 2077   5.107   0.342   1.530 -1.7069  1.1626  0.2559
  495SOL    HW2 2078   5.154   0.383   1.668 -1.0300  1.7499 -0.1385
  496SOL     OW 2079   6.029   4.921   1.928 -0.6314 -0.4416  0.1180
  496SOL    HW1 2080   5.966   4.944   1.860 -0.3604 -2.3870 -0.8608
  496SOL    HW2 2081   6.020   4.826   1.938 -1.3463 -0.1553  3.5236
  497SOL     OW 2082   6.426   1.139   1.360  0.2528  0.0404  0.1544
  497SOL    HW1 2083   6.386   1.190   1.431 -0.2877  0.1287 -0.2074
  497SOL    HW2 2084   6.393   1.179   1.280 -1.9174 -2.1104 -0.1770
  498SOL     OW 2085   0.277   0.042   0.072  0.0823  0.3727 -0.0634
  498SOL    HW1 2086   0.270   0.128   0.113 -1.2450 -0.3438  1.2956
  498SOL    HW2 2087   0.188   0.021   0.045  0.2103 -0.9838  0.4873
  499SOL     OW 2088   5.079   2.423   1.177  0.0181 -0.5535  0.2163
  499SOL    HW1 2089   5.140   2.418   1.104 -0.2374 -1.2260  0.0382
  499SOL    HW2 2090   5.073   2.516   1.198  2.9283 -0.5961  1.7845
  500SOL     OW 2091   1.434   0.660   3.153  0.3157  0.4655 -0.2342
  500SOL    HW1 2092   1.413   0.570   3.128 -0.8109  1.0900 -1.6861
  500SOL    HW2 2093   1.352   0.694   3.190  0.6725  0.9484  0.1120
  501SOL     OW 2094   1.463   0.990   1.693 -0.2204 -0.0701 -0.0050
  501SOL    HW1 2095   1.482   0.973   1.601 -1.1067  0.6776 -0.3423
  501SOL    HW2 2096   1.376   0.953   1.707 -0.2454  0.1471  0.4387
  502SOL     OW 2097   4.822   3.344   3.173  0.1591 -0.0557 -0.0084
  502SOL    HW1 2098   4.787   3.285   3.240 -1.2050 -0.4050 -0.9836
  502SOL    HW2 2099   4.885   3.290   3.125 -0.6022 -0.5347 -0.4848
  503SOL     OW 2100   0.032   3.173   1.850 -1.3600  0.1392 -0.2564
  503SOL    HW1 2101  -0.026   3.237   1.892 -1.9353  0.0385 -0.8875
  503SOL    HW2 2102   0.064   3.119   1.922  0.0263  1.8080  0.4525
  504SOL     OW 2103   5.792   2.216   0.096 -0.8936 -0.3349 -0.1037
  504SOL    HW1 2104   5.835   2.277   0.036  0.0583  0.0320  0.9052
  504SOL    HW2 2105   5.852   2.143   0.104 -1.3429 -0.7154 -0.1447
  505SOL     OW 2106   5.430   1.595   0.711 -0.1270  0.7409  0.5160
  505SOL    HW1 2107   5.408   1.503   0.728 -0.2833  0.2905 -1.7714
  505SOL    HW2 2108   5.524   1.600   0.729  0.3465 -0.4549 -1.3091
  506SOL     OW 2109   4.566   0.816   0.757  0.1365 -0.1345  0.2434
  506SOL    HW1 2110   4.486   0.764   0.756 -0.6539  0.9424  2.3596
  506SOL    HW2 2111   4.584   0.832   0.849  0.9440  2.3927 -0.2536
  507SOL     OW 2112   7.018   3.989   0.987  0.3798 -0.1443  0.3889
  507SOL    HW1 2113   7.089   3.926   0.979  2.5546  2.0945  0.5995
  507SOL    HW2 2114   7.003   4.020   0.898 -0.2543 -0.5097  0.3646
  508SOL     OW 2115   5.592   0.890   0.921  0.8083 -0.5077  0.0469
  508SOL    HW1 2116   5.644   0.838   0.983  0.2388  2.0827  2.9712
  508SOL    HW2 2117   5.649   0.963   0.899  0.7110 -1.0099 -2.0066
  509SOL     OW 2118   2.799   0.029   2.120 -0.3369 -1.1137  0.1559
  509SOL    HW1 2119   2.737   0.098   2.146  0.2748  0.0146 -1.2526
  509SOL    HW2 2120   2.745  -0.034   2.073 -0.7349 -1.1447  0.6347
  510SOL     OW 2121   0.665   3.229   1.639  0.0097  0.2120 -0.1569
  510SOL    HW1 2122   0.760   3.236   1.630  0.2929  0.2119  2.0839
  510SOL    HW2 2123   0.642   3.297   1.702 -0.8030 -2.3391  2.5487
  511SOL     OW 2124   5.035   2.506   2.329 -0.1631 -0.2023  0.3867
  511SOL    HW1 2125   5.047   2.418   2.364 -0.3571  0.3312  1.8746
  511SOL    HW2 2126   5.115   2.524   2.280  0.5771 -0.6034  1.4263
  512SOL     OW 2127   3.665   3.325   2.736  0.2131  0.3407 -0.3125
  512SOL    HW1 2128   3.608   3.391   2.697 -1.3844  0.1322  1.5078
  512SOL    HW2 2129   3.695   3.272   2.662 -2.6799 -0.0853 -1.3110
  513SOL     OW 2130   5.101   3.341   0.195  0.5786  0.4940  0.4532
  513SOL    HW1 2131   5.138   3.327   0.283 -0.6575 -0.3410  0.8679
  513SOL    HW2 2132   5.007   3.324   0.206  0.4510  0.0736 -1.1051
  514SOL     OW 2133   1.478   2.570   0.651 -0.7215 -0.5884  0.1375
  514SOL    HW1 2134   1.479   2.475   0.662 -1.7620 -0.6525 -0.2964
  514SOL    HW2 2135   1.407   2.600   0.707  0.6316  0.1282  1.5691
  515SOL     OW 2136   7.006   0.190   2.897 -0.5168  0.1888  0.2421
  515SOL    HW1 2137   6.950   0.266   2.915 -1.6066 -0.6270  0.3710
  515SOL    HW2 2138   6.978   0.124   2.960 -0.6782 -0.8725 -0.9048
  516SOL     OW 2139   7.300   0.379   3.107  0.0095  0.0279  0.4128
  516SOL    HW1 2140   7.212   0.361   3.139 -0.2840  0.3987 -0.1914
  516SOL    HW2 2141   7.291   0.390   3.013  1.0033 -1.9275  0.0219
  517SOL     OW 2142   4.195   0.918   2.675 -0.0809 -0.6579  0.2023
  517SOL    HW1 2143   4.243   1.000   2.685  0.0454 -0.5879 -0.9032
  517SOL    HW2 2144   4.114   0.942   2.631 -0.1083 -1.1061 -0.0024
  518SOL     OW 2145   3.910   3.241   0.326 -0.1836  0.7613  0.4012
  518SOL    HW1 2146   3.927   3.334   0.334  0.1651  0.9089 -1.5040
  518SOL    HW2 2147   3.836   3.234   0.266  0.6215 -0.1898 -0.5356
  519SOL     OW 2148   2.230   4.710   0.239  0.5929 -0.1460 -0.3035
  519SOL    HW1 2149   2.200   4.766   0.167 -1.0527  0.8297  1.0770
  519SOL    HW2 2150   2.187   4.626   0.224 -2.7728  1.1004  1.4077
  520SOL     OW 2151   3.291   2.310   3.269 -0.0152  0.1066 -0.1438
  520SOL    HW1 2152   3.228   2.277   3.204 -0.1686  0.3937 -0.1426
  520SOL    HW2 2153   3.343   2.375   3.221 -0.8160  1.0835  0.2934
  521SOL     OW 2154   2.215   1.433   0.164 -0.5845  0.0473  0.2110
  521SOL    HW1 2155   2.209   1.501   0.097 -1.9124  0.3638  0.6203
  521SOL    HW2 2156   2.308   1.430   0.187 -0.5846  2.2690  0.7377
  522SOL     OW 2157   5.752   3.290   0.131  0.5684 -0.5301  0.3495
  522SOL    HW1 2158   5.701   3.371   0.136 -1.1073 -1.5817  1.1356
  522SOL    HW2 2159   5.770   3.279   0.038 -1.3162 -0.4642 -0.0726
  523SOL     OW 2160   5.391   3.153   3.322  0.5903  0.2254  0.2314
  523SOL    HW1 2161   5.413   3.114   3.406  2.0133  2.3566  0.9186
  523SOL    HW2 2162   5.326   3.220   3.342 -1.2177 -1.1104 -0.8197
  524SOL     OW 2163   0.865   2.799   1.150 -0.4885  0.2989 -0.0417
  524SOL    HW1 2164   0.791   2.838   1.103  0.3747  1.2632 -0.6298
  524SOL    HW2 2165   0.891   2.724   1.096 -1.7101 -0.7310  0.7372
  525SOL     OW 2166   5.399   0.900   0.691  0.2837 -0.9949  0.0145
  525SOL    HW1 2167   5.453   0.916   0.768 -0.0048 -1.8163  0.4003
  525SOL    HW2 2168   5.344   0.825   0.716  0.4343 -1.4899 -1.1144
  526SOL     OW 2169   0.519   4.291   2.592 -0.2442 -0.0710  0.2894
  526SOL    HW1 2170   0.594   4.341   2.623 -0.3315  0.0766  0.2638
  526SOL    HW2 2171   0.522   4.210   2.643 -0.9849  0.5982  1.4362
  527SOL     OW 2172   2.361   3.583   2.729 -0.4681 -0.2477 -0.2988
  527SOL    HW1 2173   2.389   3.646   2.795  0.5804  0.0543 -1.0033
  527SOL    HW2 2174   2.297   3.528   2.773 -0.9842  0.9583  0.4910
  528SOL     OW 2175   3.765   4.625   1.103  0.7214  0.5838  0.2157
  528SOL    HW1 2176   3.735   4.601   1.016  1.1274 -0.0921  0.2574
  528SOL    HW2 2177   3.843   4.678   1.088  1.6844 -0.8005  0.1899
  529SOL     OW 2178   0.057   0.602   1.783  0.0683  0.1240  0.0844
  529SOL    HW1 2179   0.054   0.523   1.837 -0.7763  0.4299  0.5046
  529SOL    HW2 2180   0.003   0.665   1.830 -0.5232  0.4639 -1.0133
  530SOL     OW 2181   1.982   0.506   1.564 -0.1285 -0.0475  0.0590
  530SOL    HW1 2182   1.947   0.546   1.485 -0.7644 -1.6039 -0.4792
  530SOL    HW2 2183   2.015   0.421   1.536  0.8859 -0.0661  1.2229
  531SOL     OW 2184   0.489   1.938   1.871  0.7335 -0.1264 -0.2285
  531SOL    HW1 2185   0.455   1.877   1.937 -2.6476  0.9628 -0.7640
  531SOL    HW2 2186   0.504   1.883   1.794 -1.7244 -0.5234 -0.5291
  532SOL     OW 2187   0.758   1.704   2.073  0.2104  0.2831 -0.1865
  532SOL    HW1 2188   0.814   1.701   1.995  1.2053  1.1241  0.4637
  532SOL    HW2 2189   0.819   1.700   2.147 -0.7239 -0.7001  0.5720
  533SOL     OW 2190   1.542   0.403   2.278 -0.4699  0.5121 -0.7073
  533SOL    HW1 2191   1.622   0.360   2.248  0.4803  0.6139  1.4582
  533SOL    HW2 2192   1.493   0.335   2.324 -1.1029  0.7191 -1.0586
  534SOL     OW 2193   4.302   4.567   2.717  0.1845  0.1134  0.1731
  534SOL    HW1 2194   4.377   4.508   2.724  0.8479  1.1025  2.4768
  534SOL    HW2 2195   4.232   4.523   2.766 -0.6727 -0.6139 -1.6172
  535SOL     OW 2196   4.836   0.168   2.128  0.1868  0.5009 -0.5454
  535SOL    HW1 2197   4.834   0.072   2.126 -1.7996  0.3073  2.9369
  535SOL    HW2 2198   4.925   0.191   2.101  0.1449 -2.1313 -3.4822
  536SOL     OW 2199   1.483   1.568   2.271  0.7155 -0.0497  0.3808
  536SOL    HW1 2200   1.502   1.633   2.203  0.8508 -0.4040  0.0819
  536SOL    HW2 2201   1.488   1.618   2.353  0.5827  0.3722  0.1377
  537SOL     OW 2202   2.970   5.346   0.938 -0.1044 -0.3109 -0.6084
  537SOL    HW1 2203   3.033   5.354   0.866 -0.5817 -2.5122 -1.3588
  537SOL    HW2 2204   2.886   5.370   0.899 -0.0124  1.0324 -0.0416
  538SOL     OW 2205   4.870   0.994   1.080  0.1090 -0.2122  0.1242
  538SOL    HW1 2206   4.903   0.913   1.043 -0.8517 -2.3050  3.4419
  538SOL    HW2 2207   4.784   0.972   1.115  1.2636  1.0073  4.4689
  539SOL     OW 2208   6.938   2.249   0.375 -0.0278  0.7192 -0.4219
  539SOL    HW1 2209   6.861   2.196   0.397 -0.3500  0.0433 -2.8256
  539SOL    HW2 2210   6.979   2.267   0.459 -1.5752 -0.8143  0.7577
  540SOL     OW 2211   0.495   3.966   1.750 -0.6268 -0.3512 -0.2590
  540SOL    HW1 2212   0.424   4.004   1.802 -2.1013 -1.3717 -1.4284
  540SOL    HW2 2213   0.498   4.021   1.671  0.2104 -0.0526 -0.0323
  541SOL     OW 2214   1.689   0.476   3.048  0.4062  0.7372 -0.2266
  541SOL    HW1 2215   1.783   0.495   3.039  0.4549  0.1059 -1.3453
  541SOL    HW2 2216   1.684   0.416   3.123  0.8432  1.1200  0.1134
  542SOL     OW 2217   2.535   2.034   0.419 -0.0006 -0.4336 -0.6502
  542SOL    HW1 2218   2.537   1.940   0.436 -1.2113 -0.1344  1.5259
  542SOL    HW2 2219   2.444   2.051   0.393 -0.0750  0.2489  0.0147
  543SOL     OW 2220   1.042   0.763   1.405  0.3519 -0.0368  0.5161
  543SOL    HW1 2221   1.046   0.669   1.386  0.6853  0.5602 -3.1703
  543SOL    HW2 2222   1.134   0.789   1.412  0.2827  0.1290  0.8075
  544SOL     OW 2223   0.527   4.253   0.715  0.3316 -0.4570  0.0841
  544SOL    HW1 2224   0.469   4.326   0.740 -1.3705 -2.1505  1.4335
  544SOL    HW2 2225   0.600   4.260   0.776  0.5925  0.5632 -0.3200
  545SOL     OW 2226   5.839   2.737   0.884 -0.5618  0.9354  0.3362
  545SOL    HW1 2227   5.855   2.689   0.965 -0.3338 -1.5075 -1.0414
  545SOL    HW2 2228   5.746   2.758   0.886 -1.0388 -0.9831  0.3521
  546SOL     OW 2229   6.260   1.503   2.587  0.2213 -0.0174 -0.0522
  546SOL    HW1 2230   6.181   1.457   2.616 -0.3768 -0.0163 -1.5976
  546SOL    HW2 2231   6.226   1.580   2.540  1.0937 -0.6717 -1.8224
  547SOL     OW 2232   5.828   2.675   2.413 -0.9838 -0.1087  0.1687
  547SOL    HW1 2233   5.783   2.752   2.448 -0.1560  1.4064 -1.9159
  547SOL    HW2 2234   5.792   2.665   2.325 -0.9262 -2.0302  0.3297
  548SOL     OW 2235   6.554   3.880   2.630 -0.2504  0.1764  0.5670
  548SOL    HW1 2236   6.546   3.806   2.690  0.3488  0.2321  0.7215
  548SOL    HW2 2237   6.632   3.927   2.660  0.7198 -0.4092 -0.9059
  549SOL     OW 2238   4.383   2.100   3.298  0.2424  0.2753 -0.3545
  549SOL    HW1 2239   4.434   2.072   3.374 -0.0044 -3.0161 -1.2683
  549SOL    HW2 2240   4.292   2.082   3.321 -0.2783  2.7484 -0.1210
  550SOL     OW 2241   5.887   4.537   0.059 -0.0422  0.0789 -0.1492
  550SOL    HW1 2242   5.810   4.577   0.019 -0.5854 -1.1700 -0.4017
  550SOL    HW2 2243   5.908   4.593   0.133  0.5778  2.0868 -1.7390
  551SOL     OW 2244   5.882   1.736   0.807  0.2402  0.0850 -0.3296
  551SOL    HW1 2245   5.845   1.676   0.742 -0.0529  0.8322 -0.8637
  551SOL    HW2 2246   5.836   1.818   0.792  0.8960  0.5479  0.1551
  552SOL     OW 2247   6.381   0.065   2.192 -0.2057 -0.2430 -0.4572
  552SOL    HW1 2248   6.309   0.074   2.130 -1.6545 -0.5346  1.1121
  552SOL    HW2 2249   6.432  -0.009   2.159 -1.9385 -1.5218 -0.3900
  553SOL     OW 2250   7.042   3.809   3.256 -0.4742  0.1836 -0.2266
  553SOL    HW1 2251   7.101   3.789   3.184 -0.5681  0.0400 -0.2646
  553SOL    HW2 2252   6.988   3.882   3.224  1.5377  2.2668  0.8102
  554SOL     OW 2253   7.172   4.559   1.900  0.9395  0.2553  0.0108
  554SOL    HW1 2254   7.105   4.499   1.868  0.5611  1.3643 -1.3891
  554SOL    HW2 2255   7.209   4.598   1.820  2.4522  0.5158  0.8034
  555SOL     OW 2256   0.995   0.044   0.682  0.2130 -0.2813 -0.3072
  555SOL    HW1 2257   0.989  -0.051   0.694  1.0634 -0.4777 -1.2309
  555SOL    HW2 2258   0.999   0.080   0.770  0.0001 -1.1102  0.0485
  556SOL     OW 2259   5.064   4.194   0.661  0.3202 -0.0429  0.3448
  556SOL    HW1 2260   5.029   4.282   0.646 -0.4994 -0.2928  0.7190
  556SOL    HW2 2261   4.999   4.152   0.718  1.5397 -0.3355  1.5594
  557SOL     OW 2262   1.908   0.960   1.899  0.1807  0.9964  0.7187
  557SOL    HW1 2263   1.902   0.867   1.879  1.8374  1.0390 -0.1860
  557SOL    HW2 2264   1.874   0.968   1.988 -2.0604 -0.0956  0.0204
  558SOL     OW 2265   6.761   2.005   1.204 -0.3962 -0.0759 -0.0392
  558SOL    HW1 2266   6.682   2.040   1.245 -1.6111 -2.0313 -0.5611
  558SOL    HW2 2267   6.729   1.949   1.133  1.5636  1.7710 -2.6088
  559SOL     OW 2268   5.093   1.199   2.915 -0.5811  0.4276 -0.0130
  559SOL    HW1 2269   5.051   1.241   2.990 -0.1109 -3.0013  2.4178
  559SOL    HW2 2270   5.032   1.129   2.890  1.3293 -1.4898  0.3756
  560SOL     OW 2271   3.016   1.730   0.735 -0.7666 -0.7983  0.4579
  560SOL    HW1 2272   2.950   1.794   0.710 -0.6888 -0.1305  1.8871
  560SOL    HW2 2273   2.966   1.659   0.775 -0.5816  0.2543  2.6685
  561SOL     OW 2274   2.427   1.422   1.164  0.1582  1.0333 -0.5526
  561SOL    HW1 2275   2.367   1.368   1.113 -1.4452  3.6457 -1.6199
  561SOL    HW2 2276   2.372   1.492   1.200  2.2349  2.4353  0.0864
  562SOL     OW 2277   1.595   2.384   1.005 -0.2311  0.0352 -0.1206
  562SOL    HW1 2278   1.571   2.310   0.949 -0.9145 -0.0373  0.2565
  562SOL    HW2 2279   1.526   2.388   1.071 -0.1579  0.9598 -0.0830
  563SOL     OW 2280   6.910   2.086   1.576 -0.0118 -0.1389 -0.0844
  563SOL    HW1 2281   6.942   2.099   1.665  0.3011 -1.3062 -0.0038
  563SOL    HW2 2282   6.878   2.172   1.549  1.3924  0.6213  0.5492
  564SOL     OW 2283   6.151   3.026   1.819 -1.0215  0.3005  1.4216
  564SOL    HW1 2284   6.104   2.994   1.742  0.6457 -2.0167  1.2719
  564SOL    HW2 2285   6.244   3.012   1.798 -0.3721  2.1336  2.8125
  565SOL     OW 2286   2.899   2.193   1.237 -0.4397  0.1235 -0.2249
  565SOL    HW1 2287   2.922   2.107   1.272  0.1752  0.3762  0.0082
  565SOL    HW2 2288   2.847   2.234   1.306 -0.1600  0.1968 -0.0563
  566SOL     OW 2289   4.159   3.882   0.368  0.7422 -0.2416  0.0319
  566SOL    HW1 2290   4.170   3.954   0.306  0.5923  0.9717  1.3424
  566SOL    HW2 2291   4.232   3.823   0.349  1.8484  1.0852 -0.0420
  567SOL     OW 2292   0.522   2.871   2.691  0.4129 -0.0532 -0.0308
  567SOL    HW1 2293   0.474   2.954   2.688 -1.2985 -1.0034 -2.5657
  567SOL    HW2 2294   0.485   2.824   2.765  2.4470  1.9051  2.3994
  568SOL     OW 2295   2.628   5.186   1.948  0.4184 -0.2534 -0.3725
  568SOL    HW1 2296   2.561   5.124   1.920 -1.2485  1.6941 -0.9988
  568SOL    HW2 2297   2.644   5.241   1.871  2.1794 -0.1738  0.0157
  569SOL     OW 2298   3.886   4.379   0.944  0.1758  0.3663  0.0771
  569SOL    HW1 2299   3.881   4.340   1.031 -1.6805 -1.5232 -0.8014
  569SOL    HW2 2300   3.800   4.417   0.929  0.8033  1.6163 -0.5619
  570SOL     OW 2301   5.761   4.011   3.015  0.4309 -0.0292 -0.1856
  570SOL    HW1 2302   5.723   4.011   3.103  0.8233  1.7041  0.0150
  570SOL    HW2 2303   5.740   3.924   2.980 -1.9240  0.1268  0.6643
  571SOL     OW 2304   0.651   3.308   1.194 -0.1860  0.1042 -0.3186
  571SOL    HW1 2305   0.639   3.223   1.152  1.7053 -0.0695 -0.5763
  571SOL    HW2 2306   0.601   3.301   1.276  1.9008 -2.2390  0.9006
  572SOL     OW 2307   6.263   0.646   2.404 -0.6536 -0.5443 -0.6535
  572SOL    HW1 2308   6.327   0.711   2.432  0.1757 -1.1617 -1.0776
  572SOL    HW2 2309   6.266   0.579   2.472  0.1220 -1.2130 -1.3232
  573SOL     OW 2310   6.706   3.483   1.547  0.4799  0.1492  0.1115
  573SOL    HW1 2311   6.764   3.409   1.526  0.2404 -0.1432  0.4544
  573SOL    HW2 2312   6.731   3.508   1.636  0.2012  0.1403  0.1914
  574SOL     OW 2313   6.337   2.122   2.244  0.1006  0.1003  0.4161
  574SOL    HW1 2314   6.311   2.174   2.320 -1.1326 -0.5546  0.4765
  574SOL    HW2 2315   6.269   2.055   2.237  2.0023 -1.9614  0.7742
  575SOL     OW 2316   1.964   2.180   0.052  0.0199 -0.1334  0.1844
  575SOL    HW1 2317   2.045   2.174   0.103 -0.6564  1.9921  1.6577
  575SOL    HW2 2318   1.952   2.092   0.015  2.2531 -0.8711  1.0283
  576SOL     OW 2319   6.773   4.805   2.467 -0.3001 -0.8271 -0.2934
  576SOL    HW1 2320   6.810   4.883   2.507 -0.8342 -1.1792  0.9318
  576SOL    HW2 2321   6.848   4.746   2.454 -0.3113 -1.3208  1.6534
  577SOL     OW 2322   4.679   0.517   0.406  0.0302  0.2369 -0.0175
  577SOL    HW1 2323   4.608   0.564   0.449 -1.4001 -1.6962 -0.1291
  577SOL    HW2 2324   4.757   0.539   0.456 -0.9680  0.9324  1.2746
  578SOL     OW 2325   6.361   1.611   2.234  0.6909 -0.0013  0.1031
  578SOL    HW1 2326   6.360   1.610   2.138  0.6805 -1.1347  0.1099
  578SOL    HW2 2327   6.446   1.576   2.258  0.0850 -1.2317  0.5128
  579SOL     OW 2328   1.430   1.162   0.195  0.6355 -0.4884  0.7849
  579SOL    HW1 2329   1.443   1.177   0.102 -1.9377  2.7473  0.7911
  579SOL    HW2 2330   1.385   1.078   0.199 -1.1366  0.2872 -1.1295
  580SOL     OW 2331   3.089   2.458   0.461  0.3445  0.4610 -0.2154
  580SOL    HW1 2332   3.098   2.443   0.555  0.3282  0.5062 -0.2064
  580SOL    HW2 2333   3.037   2.384   0.430  3.8353 -1.9305 -0.9369
  581SOL     OW 2334   5.128   3.298   1.611 -0.0422 -0.1902 -0.0587
  581SOL    HW1 2335   5.131   3.366   1.677 -1.9069 -0.8249  0.7535
  581SOL    HW2 2336   5.051   3.320   1.557  1.0383 -0.0615 -1.6217
  582SOL     OW 2337   0.105   1.194   2.568 -0.2987  0.2548  0.3771
  582SOL    HW1 2338   0.138   1.137   2.499 -0.7031  0.1682  0.2529
  582SOL    HW2 2339   0.011   1.201   2.551 -0.3772  0.3509  0.8331
  583SOL     OW 2340   2.083   0.738   3.230  0.1154 -0.5808 -0.0048
  583SOL    HW1 2341   2.169   0.766   3.198  1.3870 -2.7148  1.3327
  583SOL    HW2 2342   2.085   0.758   3.323 -1.2220  0.1595 -0.1159
  584SOL     OW 2343   1.707   0.352   1.889 -0.0938 -0.1165  0.3696
  584SOL    HW1 2344   1.770   0.294   1.848  2.0929  1.2622  1.5755
  584SOL    HW2 2345   1.724   0.344   1.983 -0.9832  1.1052  0.6619
  585SOL     OW 2346   5.699   4.010   1.592  0.1757 -0.0522  0.3218
  585SOL    HW1 2347   5.750   4.056   1.658 -0.1348  0.1921  0.3930
  585SOL    HW2 2348   5.746   3.928   1.578  0.6947  0.2519  0.2450
  586SOL     OW 2349   1.144   3.366   2.291 -0.1526 -0.1549  0.0395
  586SOL    HW1 2350   1.171   3.456   2.269  1.3726  0.2178  2.9486
  586SOL    HW2 2351   1.196   3.311   2.233  2.9089  0.7778  1.6850
  587SOL     OW 2352   1.786   4.548   1.026 -0.7841  0.1607 -0.0967
  587SOL    HW1 2353   1.845   4.490   0.978  1.4598  1.9602  0.3184
  587SOL    HW2 2354   1.824   4.553   1.114 -2.1480  0.6047  0.4932
  588SOL     OW 2355   1.811   0.174   1.132  0.0709  0.2512 -0.1233
  588SOL    HW1 2356   1.858   0.139   1.208 -0.8581 -2.4052 -0.6680
  588SOL    HW2 2357   1.858   0.138   1.056 -1.4663 -0.6791 -0.6984
  589SOL     OW 2358   5.940   3.705   3.205 -0.1168  0.9217 -0.0496
  589SOL    HW1 2359   5.969   3.775   3.263  0.3997  1.6779 -1.1745
  589SOL    HW2 2360   6.005   3.635   3.216 -0.4358  0.7591  0.8138
  590SOL     OW 2361   6.894   0.664   3.066 -0.0668 -0.2422  1.2553
  590SOL    HW1 2362   6.965   0.635   3.123  0.2994 -3.7553 -0.7319
  590SOL    HW2 2363   6.938   0.695   2.986 -0.6281  3.4725  2.1784
  591SOL     OW 2364   3.310   1.315   2.101 -0.0395  0.1020 -0.0818
  591SOL    HW1 2365   3.232   1.356   2.063  0.0843  3.1765  2.5819
  591SOL    HW2 2366   3.380   1.379   2.086  1.1483 -0.9661  0.7477
  592SOL     OW 2367   2.631   4.682   2.713  0.0349  0.3854 -0.2455
  592SOL    HW1 2368   2.628   4.639   2.798 -0.3625  0.8008 -0.0433
  592SOL    HW2 2369   2.657   4.614   2.652  0.3895  0.1016  0.2207
  593SOL     OW 2370   2.705   0.466   2.936 -0.5478 -0.1012  0.4672
  593SOL    HW1 2371   2.699   0.466   3.032  1.4073 -0.3781  0.6307
  593SOL    HW2 2372   2.659   0.387   2.909  2.7665 -2.5751  1.5566
  594SOL     OW 2373   2.118   1.289   2.414  0.1471  0.2971 -0.0743
  594SOL    HW1 2374   2.065   1.277   2.335 -0.0508 -0.0337  0.1070
  594SOL    HW2 2375   2.205   1.309   2.381  0.4562 -1.4313 -0.4067
  595SOL     OW 2376   7.250   1.372   0.064 -0.3088  0.3156  0.2945
  595SOL    HW1 2377   7.189   1.407   0.130 -1.1017 -0.1432 -0.1777
  595SOL    HW2 2378   7.205   1.385  -0.019 -0.9042 -2.2391  0.1194
  596SOL     OW 2379   5.258   3.357   0.419  0.2818 -0.2338  0.4472
  596SOL    HW1 2380   5.235   3.384   0.508 -0.0373  0.0097  0.2923
  596SOL    HW2 2381   5.336   3.303   0.430 -0.5650 -1.3841  1.0235
  597SOL     OW 2382   2.883   2.556   1.735 -0.0744 -0.0769  0.6601
  597SOL    HW1 2383   2.812   2.500   1.766 -0.4125 -0.0077  0.0348
  597SOL    HW2 2384   2.866   2.642   1.775 -1.5855  0.5265 -1.1516
  598SOL     OW 2385   5.002   2.669   1.749  0.1710 -0.5902  0.2998
  598SOL    HW1 2386   4.965   2.583   1.769 -0.2865 -0.1239  1.5270
  598SOL    HW2 2387   5.011   2.712   1.834 -0.3751  0.8855 -0.3588
  599SOL     OW 2388   0.658   3.542   2.810 -0.4385 -0.7243 -0.1897
  599SOL    HW1 2389   0.701   3.617   2.769  0.8645 -1.2064  0.2620
  599SOL    HW2 2390   0.621   3.578   2.891 -0.5696 -0.3944 -0.3893
  600SOL     OW 2391   5.166   1.207   1.898  0.2363  0.2989 -0.0915
  600SOL    HW1 2392   5.092   1.267   1.908  0.7036  0.8335  0.2228
  600SOL    HW2 2393   5.238   1.250   1.945  0.8195 -0.0776 -0.6251
  601SOL     OW 2394   2.837   3.151   0.269  0.1043 -0.0524 -0.1575
  601SOL    HW1 2395   2.902   3.093   0.231  0.3667  1.1111 -1.5467
  601SOL    HW2 2396   2.773   3.164   0.199 -0.9495 -0.1506  0.7610
  602SOL     OW 2397   0.269   3.220   3.285 -0.1374  0.3841  0.0995
  602SOL    HW1 2398   0.293   3.311   3.266  0.0915 -0.0391 -1.8749
  602SOL    HW2 2399   0.179   3.226   3.319 -0.2909  1.3116 -0.4276
  603SOL     OW 2400   0.446   5.178   1.635 -0.5029 -0.3604  0.4603
  603SOL    HW1 2401   0.424   5.255   1.583 -1.8357 -0.9138  0.1455
  603SOL    HW2 2402   0.535   5.155   1.608 -0.5879  0.2872 -0.4118
  604SOL     OW 2403   5.988   5.110   1.711 -0.4883  0.0047  0.1582
  604SOL    HW1 2404   6.019   5.201   1.707  0.2061 -0.2606 -0.7333
  604SOL    HW2 2405   5.988   5.089   1.804  0.1674  0.6444  0.3116
  605SOL     OW 2406   6.369   0.114   1.620  0.2069 -0.1328 -0.4163
  605SOL    HW1 2407   6.307   0.183   1.644 -0.6684 -0.6011 -1.2670
  605SOL    HW2 2408   6.367   0.054   1.694 -0.6063 -0.3129 -0.5803
  606SOL     OW 2409   0.328   1.792   3.115 -0.4829  0.0297 -0.0695
  606SOL    HW1 2410   0.251   1.848   3.128 -0.1184  0.5957 -0.2650
  606SOL    HW2 2411   0.309   1.743   3.035  0.2694  1.8170 -1.4350
  607SOL     OW 2412   4.849   2.166   0.058  0.5308 -0.0749 -0.2255
  607SOL    HW1 2413   4.759   2.194   0.077  0.3880 -0.4611 -0.3292
  607SOL    HW2 2414   4.839   2.094  -0.004  0.9512  0.5791 -1.0772
  608SOL     OW 2415   0.502   1.893   2.860 -0.3769  0.1966 -0.0864
  608SOL    HW1 2416   0.590   1.860   2.843 -1.2066 -1.8984 -0.6475
  608SOL    HW2 2417   0.447   1.815   2.860 -2.0364  1.2623  1.7725
  609SOL     OW 2418   6.754   0.436   0.782  0.0344 -0.0013 -0.2073
  609SOL    HW1 2419   6.751   0.353   0.829  0.3642 -0.3396 -0.7632
  609SOL    HW2 2420   6.844   0.468   0.796  0.5392 -0.7229 -1.6115
  610SOL     OW 2421   2.814   1.266   1.001  0.9308 -0.0081 -0.4282
  610SOL    HW1 2422   2.853   1.253   1.088  3.3597  5.1111 -0.3340
  610SOL    HW2 2423   2.885   1.246   0.940 -0.1648 -1.7351 -1.1984
  611SOL     OW 2424   5.950   2.641   0.271 -0.3168 -0.0305  0.3637
  611SOL    HW1 2425   5.982   2.563   0.317 -1.0319 -0.6160 -0.1028
  611SOL    HW2 2426   5.871   2.666   0.319 -0.6344 -0.1811 -0.0759
  612SOL     OW 2427   7.212   2.083   1.569  0.3058 -0.2528 -0.1139
  612SOL    HW1 2428   7.161   2.010   1.533 -0.7435  0.5561 -0.3260
  612SOL    HW2 2429   7.256   2.046   1.646 -0.6545 -0.9735  0.1117
  613SOL     OW 2430   5.924   0.076   1.938 -0.1238  0.2400 -0.4851
  613SOL    HW1 2431   5.842   0.025   1.938 -0.1385  0.1546 -2.8808
  613SOL    HW2 2432   5.896   0.165   1.958 -0.7071  0.0903 -0.6086
  614SOL     OW 2433   5.354   2.250   2.337  0.1714 -0.0134  0.2384
  614SOL    HW1 2434   5.258   2.248   2.335  0.1796 -0.0839 -0.1115
  614SOL    HW2 2435   5.375   2.318   2.401 -0.1213 -1.9329  2.5192
  615SOL     OW 2436   1.628   2.521   0.392  0.1294  0.3273  0.0897
  615SOL    HW1 2437   1.634   2.528   0.297 -0.0129 -0.1562  0.0423
  615SOL    HW2 2438   1.557   2.580   0.416 -0.4077 -0.1878 -0.1971
  616SOL     OW 2439   0.873   0.673   0.579  0.1556 -0.2728  0.0612
  616SOL    HW1 2440   0.931   0.658   0.653  2.8542  0.6311 -1.7076
  616SOL    HW2 2441   0.912   0.749   0.534 -2.8689  0.8715 -0.8528
  617SOL     OW 2442   1.062   2.741   0.306  0.1883 -0.2332 -0.7011
  617SOL    HW1 2443   1.151   2.738   0.343  0.0895 -0.2238 -0.4608
  617SOL    HW2 2444   1.034   2.649   0.305 -0.2469 -0.1197  0.3218
  618SOL     OW 2445   3.251   2.330   0.969  0.4015  0.2832 -0.0359
  618SOL    HW1 2446   3.208   2.302   1.051 -0.9275 -1.2315 -1.1783
  618SOL    HW2 2447   3.260   2.425   0.978 -2.6010  0.6192  0.6053
  619SOL     OW 2448   6.187   1.785   1.146  0.0997 -0.1678 -0.7503
  619SOL    HW1 2449   6.184   1.793   1.241  2.1876 -0.6769 -0.5871
  619SOL    HW2 2450   6.104   1.745   1.122  0.4839 -2.2626  1.1278
  620SOL     OW 2451   5.426   0.610   1.217  0.3880  0.1016 -0.2185
  620SOL    HW1 2452   5.469   0.694   1.231 -2.0396  1.3416  0.5612
  620SOL    HW2 2453   5.487   0.559   1.164  2.2636  2.0620 -0.0764
  621SOL     OW 2454   5.347   2.489   1.353  0.7713  0.3110  0.0142
  621SOL    HW1 2455   5.436   2.473   1.382  0.7972 -0.8295 -0.6520
  621SOL    HW2 2456   5.341   2.585   1.346  2.2583  0.3547 -0.9592
  622SOL     OW 2457   1.801   0.261   2.159 -0.2444  0.5422 -0.0576
  622SOL    HW1 2458   1.796   0.338   2.215 -1.3715  1.4245 -1.3255
  622SOL    HW2 2459   1.892   0.232   2.167 -0.0898  1.3086  1.3110
  623SOL     OW 2460   3.002   3.586   2.525 -0.2817  0.2026  0.7100
  623SOL    HW1 2461   2.935   3.551   2.466  0.9481 -1.7285  0.3483
  623SOL    HW2 2462   2.953   3.631   2.594 -1.8838 -0.0485 -0.2265
  624SOL     OW 2463   0.306   1.333   1.120 -0.0305  0.5751 -0.0071
  624SOL    HW1 2464   0.359   1.320   1.199 -1.0363 -0.8220  0.4698
  624SOL    HW2 2465   0.241   1.263   1.123 -0.5987  0.9949 -1.6673
  625SOL     OW 2466   0.428   4.692   0.527  0.1540  0.0496 -0.0313
  625SOL    HW1 2467   0.446   4.786   0.518  0.7038  0.3837  3.4006
  625SOL    HW2 2468   0.335   4.687   0.546 -0.1648 -0.2872 -1.5232
  626SOL     OW 2469   5.089   4.533   3.398  0.0917 -0.3350 -0.6768
  626SOL    HW1 2470   5.119   4.588   3.326 -3.8125  1.3494 -1.2697
  626SOL    HW2 2471   5.070   4.449   3.358 -0.6532  0.1350 -1.3308
  627SOL     OW 2472   4.929   1.834   1.110 -0.1241 -0.3958  0.3945
  627SOL    HW1 2473   4.862   1.875   1.164 -1.0978 -0.2132 -0.9145
  627SOL    HW2 2474   4.907   1.740   1.113 -1.7225 -0.1558 -1.6417
  628SOL     OW 2475   1.599   0.883   3.211 -0.3008 -0.1542 -0.0214
  628SOL    HW1 2476   1.548   0.821   3.160  0.2380 -2.0929  1.6616
  628SOL    HW2 2477   1.681   0.892   3.163 -0.3439 -0.8472 -0.2295
  629SOL     OW 2478   4.303   0.230   1.190  0.3088  0.4935 -0.1852
  629SOL    HW1 2479   4.352   0.261   1.266  1.2881  0.1017 -0.6273
  629SOL    HW2 2480   4.370   0.189   1.135 -0.5806 -0.3048 -0.6875
  630SOL     OW 2481   2.425   2.717   0.430 -0.1413  0.3351  0.4943
  630SOL    HW1 2482   2.440   2.811   0.425 -0.6388  0.3563 -0.8510
  630SOL    HW2 2483   2.382   2.704   0.515 -1.0524  1.4714  0.2367
  631SOL     OW 2484   5.549   3.467   0.274  0.0804  0.4456  0.7713
  631SOL    HW1 2485   5.464   3.491   0.236 -1.3669  0.3496  3.7229
  631SOL    HW2 2486   5.572   3.541   0.330  1.8962  0.3682  0.1879
  632SOL     OW 2487   2.981   4.372   0.245 -0.0465 -0.4050  0.4890
  632SOL    HW1 2488   2.957   4.317   0.320 -0.1174  2.1781  2.4882
  632SOL    HW2 2489   3.074   4.393   0.260  0.2635 -0.7953 -0.8055
  633SOL     OW 2490   5.772   1.334   0.979 -0.0023 -0.5785  0.2721
  633SOL    HW1 2491   5.812   1.305   1.061  2.3329 -0.1935 -0.6508
  633SOL    HW2 2492   5.695   1.277   0.968  0.4054 -1.5352  2.0435
  634SOL     OW 2493   6.841   4.674   1.598 -0.4356  0.1749  0.0694
  634SOL    HW1 2494   6.879   4.751   1.640 -0.6301 -0.6653  1.8638
  634SOL    HW2 2495   6.917   4.621   1.572 -0.3360  0.1863  0.3412
  635SOL     OW 2496   1.066   3.842   0.425  0.6860 -0.2050  0.2635
  635SOL    HW1 2497   1.049   3.927   0.465  1.0944  0.8835 -1.7725
  635SOL    HW2 2498   0.988   3.823   0.374  0.8039 -0.8212  0.3038
  636SOL     OW 2499   7.128   3.699   2.521 -0.0719 -0.5454  0.3891
  636SOL    HW1 2500   7.155   3.646   2.596 -1.3475 -1.4305  0.2689
  636SOL    HW2 2501   7.047   3.658   2.491 -1.0160  1.3709  0.1479
  637SOL     OW 2502   0.319   2.088   1.065  0.5265  0.3401  0.6660
  637SOL    HW1 2503   0.248   2.087   1.128 -1.4858  0.1428 -1.4740
  637SOL    HW2 2504   0.302   2.012   1.008  3.0373 -0.3287  0.6505
  638SOL     OW 2505   5.122   0.210   3.043  0.5792 -0.2513  0.3097
  638SOL    HW1 2506   5.053   0.207   3.109  0.7635  1.8557  0.6393
  638SOL    HW2 2507   5.092   0.274   2.979  1.0208 -1.2813 -0.9926
  639SOL     OW 2508   3.810   0.845   0.831  0.2678 -0.1127 -0.0684
  639SOL    HW1 2509   3.833   0.856   0.738  1.3892  0.9824  0.3213
  639SOL    HW2 2510   3.824   0.752   0.847  2.0447  0.0373 -0.5112
  640SOL     OW 2511   6.018   1.297   1.994  0.4219  0.1007 -0.1386
  640SOL    HW1 2512   5.935   1.343   2.008 -0.2140 -1.0669  0.1507
  640SOL    HW2 2513   6.056   1.289   2.081  0.5120  0.0610 -0.1816
  641SOL     OW 2514   5.256   4.347   1.320  0.4956  0.1530 -0.2671
  641SOL    HW1 2515   5.230   4.307   1.403  0.0489  1.4115  0.2246
  641SOL    HW2 2516   5.270   4.273   1.261 -0.2604 -0.7193  0.6155
  642SOL     OW 2517   2.851   5.304   0.323 -0.0018 -0.6577 -0.1428
  642SOL    HW1 2518   2.916   5.257   0.376 -1.2207 -0.8387  1.2775
  642SOL    HW2 2519   2.843   5.389   0.366 -0.8913 -0.7383 -0.1437
  643SOL     OW 2520   2.284   0.967   2.478 -1.1240  1.1078 -0.8443
  643SOL    HW1 2521   2.218   0.898   2.478 -1.9613  1.8820 -0.9046
  643SOL    HW2 2522   2.321   0.965   2.390 -1.4855  1.0448 -0.9966
  644SOL     OW 2523   6.904   4.779   0.885  0.7450  0.1905 -0.2925
  644SOL    HW1 2524   6.947   4.864   0.895  0.0330  0.5456 -0.1751
  644SOL    HW2 2525   6.892   4.747   0.974 -2.5902  1.8289 -0.0057
  645SOL     OW 2526   5.877   1.892   2.925  0.6110 -0.7046 -0.5425
  645SOL    HW1 2527   5.842   1.884   3.014  0.2722  1.2565 -0.4474
  645SOL    HW2 2528   5.972   1.893   2.936  0.5564  0.6678 -0.0503
  646SOL     OW 2529   2.205   3.837   0.299  0.2141 -0.2827 -0.0768
  646SOL    HW1 2530   2.185   3.759   0.351  0.8058 -0.3233  0.0961
  646SOL    HW2 2531   2.198   3.910   0.360  1.8349 -0.4182  0.3130
  647SOL     OW 2532   7.025   2.787   0.828 -0.1342  0.5059 -0.9633
  647SOL    HW1 2533   7.069   2.852   0.772 -1.1007 -0.1399 -2.5397
  647SOL    HW2 2534   6.935   2.785   0.796 -0.8319  0.3492  0.8867
  648SOL     OW 2535   4.361   4.161   0.380  0.4033  0.2768 -0.0201
  648SOL    HW1 2536   4.292   4.128   0.322  0.4556 -0.1755  0.1735
  648SOL    HW2 2537   4.359   4.102   0.455  0.8170  0.4325  0.1117
  649SOL     OW 2538   7.041   1.951   1.163  0.6968 -0.4470  0.0821
  649SOL    HW1 2539   6.949   1.949   1.188  0.4752  0.3452 -0.6182
  649SOL    HW2 2540   7.045   2.015   1.092  1.7576 -0.6086 -0.0192
  650SOL     OW 2541   6.830   1.005   0.291 -0.4817  0.2781 -0.3246
  650SOL    HW1 2542   6.861   1.023   0.380  0.4839 -1.6374 -0.2100
  650SOL    HW2 2543   6.741   0.971   0.302  0.3331 -1.8640  0.1729
  651SOL     OW 2544   0.688   3.150   2.752 -0.5100 -0.0902 -0.2507
  651SOL    HW1 2545   0.659   3.129   2.841  0.0533  0.7005  0.1385
  651SOL    HW2 2546   0.775   3.111   2.745 -0.9133 -0.9068 -0.7731
  652SOL     OW 2547   5.747   5.159   0.065  0.1083  0.2168 -0.2281
  652SOL    HW1 2548   5.790   5.138  -0.018 -0.9406 -0.6098 -0.5759
  652SOL    HW2 2549   5.720   5.075   0.101 -0.7164  0.6728  0.2542
  653SOL     OW 2550   0.580   3.669   3.050 -0.4085  0.3545  0.4452
  653SOL    HW1 2551   0.634   3.738   3.090 -0.1582 -0.9445  2.5099
  653SOL    HW2 2552   0.499   3.714   3.024 -0.3530  1.4093  1.9596
  654SOL     OW 2553   3.371   0.497   3.392  0.2493 -0.1963 -0.3244
  654SOL    HW1 2554   3.312   0.541   3.331  0.7330 -0.0037 -0.6669
  654SOL    HW2 2555   3.329   0.504   3.477 -1.1640 -1.7582 -0.8470
  655SOL     OW 2556   2.346   1.394   2.273 -0.9370 -0.1559 -0.4336
  655SOL    HW1 2557   2.384   1.456   2.211 -0.4735  0.2091  0.1984
  655SOL    HW2 2558   2.354   1.438   2.358  0.6517 -1.6190  0.2378
  656SOL     OW 2559   2.655   1.990   1.437  0.1514  0.0165  0.5295
  656SOL    HW1 2560   2.700   1.966   1.518  0.6768 -0.6447  0.0522
  656SOL    HW2 2561   2.697   1.937   1.369  0.5363  1.4427 -0.3808
  657SOL     OW 2562   5.472   0.413   3.352  0.3863 -0.5401 -0.1746
  657SOL    HW1 2563   5.479   0.336   3.295  1.1043 -0.8163  0.2630
  657SOL    HW2 2564   5.542   0.400   3.417  0.4286  0.4181 -0.0216
  658SOL     OW 2565   6.833   1.093   2.925 -0.4159 -0.1843 -0.4711
  658SOL    HW1 2566   6.793   1.020   2.878  0.6875 -1.3560  0.2962
  658SOL    HW2 2567   6.904   1.122   2.868  0.4814 -1.1475  0.1016
  659SOL     OW 2568   0.598   0.636   1.133  0.1334 -0.4859  0.3004
  659SOL    HW1 2569   0.643   0.698   1.190 -1.0666  1.7028 -1.0088
  659SOL    HW2 2570   0.585   0.558   1.188  0.7816  0.7768  2.3483
  660SOL     OW 2571   1.824   5.241   1.498 -0.4573  0.4926 -0.1033
  660SOL    HW1 2572   1.763   5.278   1.562  0.0558 -1.7086  1.8056
  660SOL    HW2 2573   1.796   5.150   1.488 -2.1711  1.2763 -5.2021
  661SOL     OW 2574   1.592   3.737   1.701  0.2248  0.2932 -0.6057
  661SOL    HW1 2575   1.562   3.714   1.613  1.5698  0.2437 -1.0744
  661SOL    HW2 2576   1.514   3.729   1.755 -0.7949  0.9596 -1.8961
  662SOL     OW 2577   6.232   0.134   2.428  0.0273  0.5224  0.0152
  662SOL    HW1 2578   6.141   0.154   2.407  0.1922  0.6640 -0.5978
  662SOL    HW2 2579   6.278   0.139   2.344  0.5808  0.3419  0.2972
  663SOL     OW 2580   3.122   4.429   2.238 -0.4047  0.3004  0.2593
  663SOL    HW1 2581   3.177   4.413   2.314 -1.1230  1.3131  1.0297
  663SOL    HW2 2582   3.129   4.349   2.185 -1.7037 -1.4227  2.5270
  664SOL     OW 2583   6.941   3.605   0.842 -0.6201  0.1654  0.4808
  664SOL    HW1 2584   6.892   3.633   0.764  1.5836 -0.2946 -1.1714
  664SOL    HW2 2585   7.014   3.666   0.848 -0.0126 -0.6174  1.3953
  665SOL     OW 2586   0.171   0.398   2.321  0.2881  0.2481  0.8205
  665SOL    HW1 2587   0.164   0.467   2.386 -1.6875  0.8251  0.0962
  665SOL    HW2 2588   0.200   0.321   2.370  3.0613  1.6426  1.5445
  666SOL     OW 2589   6.496   4.537   0.949  0.8734 -0.2567 -0.2379
  666SOL    HW1 2590   6.458   4.559   1.034  2.3250 -0.4573  0.4934
  666SOL    HW2 2591   6.442   4.585   0.886  0.5068  0.8875  0.8880
  667SOL     OW 2592   0.968   4.142   3.055 -0.4018  0.0786 -0.5120
  667SOL    HW1 2593   1.053   4.107   3.080 -1.3008 -2.3296 -0.5592
  667SOL    HW2 2594   0.908   4.113   3.124 -1.5892 -0.3133 -1.6668
  668SOL     OW 2595   6.397   2.497   0.131 -0.4526 -0.3971 -0.1727
  668SOL    HW1 2596   6.317   2.549   0.133  0.0699  0.3855  0.8349
  668SOL    HW2 2597   6.426   2.493   0.222  0.7862 -0.4526 -0.5515
  669SOL     OW 2598   0.074   2.521   2.056 -0.2786  0.3038 -0.4288
  669SOL    HW1 2599   0.148   2.576   2.031 -0.5932  1.3190  0.7956
  669SOL    HW2 2600   0.064   2.536   2.150 -0.6698 -1.4973 -0.1470
  670SOL     OW 2601   0.008   4.388   0.623  1.2475  0.5518 -0.0867
  670SOL    HW1 2602  -0.067   4.404   0.566  0.6605  3.6545  1.3325
  670SOL    HW2 2603   0.083   4.419   0.572  1.1874  0.2040 -0.3930
  671SOL     OW 2604   2.665   5.224   2.517  0.4016 -0.3102 -0.4689
  671SOL    HW1 2605   2.636   5.195   2.430 -0.5327  0.2769 -0.3755
  671SOL    HW2 2606   2.683   5.144   2.565  1.9487 -0.6425 -1.5144
  672SOL     OW 2607   6.070   0.792   3.360 -0.5221  0.2552 -0.0070
  672SOL    HW1 2608   5.978   0.783   3.335 -0.7153  2.3287 -0.2184
  672SOL    HW2 2609   6.114   0.724   3.311 -1.7486  0.2679 -1.2035
  673SOL     OW 2610   5.502   0.894   1.808 -0.4940  0.3040 -0.2734
  673SOL    HW1 2611   5.499   0.954   1.734  0.8647  1.7328  0.7627
  673SOL    HW2 2612   5.447   0.935   1.875 -2.3667 -1.3662 -0.7111
  674SOL     OW 2613   5.666   0.755   2.838  0.2330  0.3194  0.6560
  674SOL    HW1 2614   5.668   0.825   2.903  0.5129 -1.7241  3.0090
  674SOL    HW2 2615   5.576   0.723   2.840 -0.0212  0.8403 -0.7565
  675SOL     OW 2616   1.936   3.307   0.443  0.7343 -0.4533 -0.0381
  675SOL    HW1 2617   1.891   3.377   0.397  0.9146  1.0218  1.8856
  675SOL    HW2 2618   1.950   3.239   0.377 -0.0770  1.0189 -1.7976
  676SOL     OW 2619   6.506   4.337   0.351 -0.1558  0.4263  0.1784
  676SOL    HW1 2620   6.539   4.413   0.400 -0.9280  0.7330  0.2402
  676SOL    HW2 2621   6.434   4.304   0.404  0.8894 -1.0793  0.7448
  677SOL     OW 2622   2.043   4.342   3.081  1.1691  0.1113 -0.5736
  677SOL    HW1 2623   1.974   4.367   3.143  1.3640  1.3506 -0.8294
  677SOL    HW2 2624   2.087   4.268   3.123 -0.1190 -0.5292 -0.2766
  678SOL     OW 2625   1.318   2.873   2.107 -0.3356 -0.0538  0.1220
  678SOL    HW1 2626   1.228   2.905   2.095 -0.3162 -0.1012 -0.1423
  678SOL    HW2 2627   1.359   2.884   2.022  0.3473  1.3036  0.5961
  679SOL     OW 2628   6.737   1.711   2.499  0.7433 -0.0606 -0.0777
  679SOL    HW1 2629   6.766   1.782   2.442  0.2800  1.9105  1.9772
  679SOL    HW2 2630   6.701   1.756   2.575  0.8619 -2.5478  1.5423
  680SOL     OW 2631   4.045   0.721   0.054  0.4272  1.0432 -0.1625
  680SOL    HW1 2632   4.072   0.684   0.138 -3.2706 -1.5773  0.1602
  680SOL    HW2 2633   3.968   0.774   0.075 -0.6092  0.2898 -1.8015
  681SOL     OW 2634   3.140   2.558   3.131 -0.2308  0.1987  0.4618
  681SOL    HW1 2635   3.200   2.614   3.181  0.5700 -0.0410 -0.2120
  681SOL    HW2 2636   3.064   2.613   3.114 -0.1042  0.5854  1.1271
  682SOL     OW 2637   3.641   0.894   2.931  0.0917  0.1731 -0.6251
  682SOL    HW1 2638   3.584   0.958   2.971  0.9498  0.7846 -0.3497
  682SOL    HW2 2639   3.709   0.946   2.888  1.3283 -0.5444  0.3843
  683SOL     OW 2640   3.898   2.722   2.108 -0.5452  0.4355 -0.3301
  683SOL    HW1 2641   3.883   2.761   2.022 -1.4681 -1.3212 -1.0334
  683SOL    HW2 2642   3.953   2.645   2.089  0.1848  0.6620  0.8066
  684SOL     OW 2643   1.408   4.522   2.822 -0.6577 -0.4064  0.4179
  684SOL    HW1 2644   1.398   4.592   2.886 -3.8042  0.6307 -0.9857
  684SOL    HW2 2645   1.320   4.486   2.812  0.3405 -2.6818 -0.9705
  685SOL     OW 2646   6.397   1.725   0.960  0.2612  0.4422  0.5912
  685SOL    HW1 2647   6.425   1.697   1.047  0.7969  0.1959  0.3441
  685SOL    HW2 2648   6.316   1.774   0.975  1.3248  2.0217  1.4270
  686SOL     OW 2649   0.095   2.583   2.369  0.3406 -0.7972  0.3268
  686SOL    HW1 2650   0.139   2.668   2.372  0.1713 -0.7311  0.8973
  686SOL    HW2 2651   0.135   2.533   2.440  1.3833 -1.6621 -0.8169
  687SOL     OW 2652   6.380   0.607   2.953 -0.0471  0.2223  0.2026
  687SOL    HW1 2653   6.467   0.635   2.980 -0.1308  0.7506 -0.0715
  687SOL    HW2 2654   6.352   0.546   3.021 -0.7728  2.4302  1.9759
  688SOL     OW 2655   3.693   0.331   0.777  0.2543 -0.3055  0.1151
  688SOL    HW1 2656   3.763   0.395   0.770  2.0723 -2.0622  1.3210
  688SOL    HW2 2657   3.641   0.360   0.852  0.7147  0.0424  0.2992
  689SOL     OW 2658   6.130   1.039   3.453  0.3513  0.3479  0.0761
  689SOL    HW1 2659   6.129   1.081   3.367  0.5071  1.4614  0.5992
  689SOL    HW2 2660   6.122   0.945   3.434 -1.9223  0.6996 -1.0374
  690SOL     OW 2661   0.034   1.251   0.288 -0.1091  0.5699 -0.0261
  690SOL    HW1 2662   0.001   1.264   0.377  0.0754 -2.0955  0.5159
  690SOL    HW2 2663  -0.033   1.290   0.231 -1.5640  0.0055  1.2304
  691SOL     OW 2664   2.042   0.254   1.468 -0.4716 -0.4274  0.1073
  691SOL    HW1 2665   2.103   0.197   1.514 -0.4667 -0.9003 -0.4717
  691SOL    HW2 2666   2.007   0.199   1.397  0.1114  0.5089 -0.9374
  692SOL     OW 2667   0.518   1.724   1.715  0.0842  0.9963 -0.4707
  692SOL    HW1 2668   0.564   1.709   1.632  2.8281 -0.0034  1.0998
  692SOL    HW2 2669   0.544   1.651   1.770 -3.1537  0.6217  0.7733
  693SOL     OW 2670   0.134   4.906   0.833 -0.7049 -0.2724  0.3012
  693SOL    HW1 2671   0.065   4.863   0.883 -0.5401  0.5979  1.3199
  693SOL    HW2 2672   0.122   4.999   0.850  0.7778 -0.1032  0.6050
  694SOL     OW 2673   5.636   5.298   1.802  0.1334 -0.0639 -0.0360
  694SOL    HW1 2674   5.651   5.380   1.754  2.5533 -0.2371  0.3220
  694SOL    HW2 2675   5.601   5.238   1.736  1.1258  0.4179 -1.0366
  695SOL     OW 2676   1.777   4.755   0.411 -0.1485  0.1704 -0.2097
  695SOL    HW1 2677   1.734   4.735   0.494 -0.0567  1.8995  0.2876
  695SOL    HW2 2678   1.869   4.733   0.425 -0.0731  0.7696  0.2751
  696SOL     OW 2679   1.908   3.577   0.319 -0.5650 -0.0607  0.0390
  696SOL    HW1 2680   1.955   3.510   0.270 -0.3452  0.5113 -0.5425
  696SOL    HW2 2681   1.844   3.612   0.257  0.5257  1.5138 -0.2462
  697SOL     OW 2682   3.691   0.700   0.521  0.1543 -0.6125  0.0976
  697SOL    HW1 2683   3.623   0.689   0.588 -2.1703  0.4498 -1.9528
  697SOL    HW2 2684   3.716   0.793   0.527 -2.0541  0.2377 -2.1391
  698SOL     OW 2685   6.932   4.301   1.623 -0.0784 -0.1910  0.6756
  698SOL    HW1 2686   6.993   4.243   1.578 -0.0218  0.9481 -0.7876
  698SOL    HW2 2687   6.849   4.254   1.624  0.2953 -0.8507  0.7448
  699SOL     OW 2688   6.642   0.147   0.528  0.7217 -0.1426  0.0865
  699SOL    HW1 2689   6.651   0.104   0.443 -0.0414  3.3801 -1.9865
  699SOL    HW2 2690   6.731   0.153   0.562  1.1093 -1.0870 -0.6996
  700SOL     OW 2691   1.950   4.972   0.188 -0.4419 -0.5258  0.2644
  700SOL    HW1 2692   2.023   4.915   0.165  0.9928  0.5651  1.8841
  700SOL    HW2 2693   1.876   4.913   0.202  0.5889 -1.8255  0.3176
  701SOL     OW 2694   4.044   4.727   2.266 -0.0286 -0.0997 -0.3548
  701SOL    HW1 2695   4.042   4.672   2.344 -3.6368  0.2582 -0.0332
  701SOL    HW2 2696   4.126   4.777   2.274  0.4298 -1.1151  2.4167
  702SOL     OW 2697   6.247   1.339   3.463 -0.2405  0.0254 -1.0779
  702SOL    HW1 2698   6.310   1.306   3.399  0.3480 -1.6666  0.2929
  702SOL    HW2 2699   6.278   1.304   3.547 -1.6930  1.1295 -0.0400
  703SOL     OW 2700   3.845   0.836   3.105 -0.1119  0.0770  0.2034
  703SOL    HW1 2701   3.816   0.877   3.186 -0.6770  1.0530 -0.4645
  703SOL    HW2 2702   3.772   0.850   3.044 -0.0843 -1.4542 -0.2114
  704SOL     OW 2703   7.059   1.130   0.209  0.8447 -0.3132  0.0127
  704SOL    HW1 2704   6.978   1.082   0.230  1.5515 -2.4558 -1.7697
  704SOL    HW2 2705   7.030   1.200   0.152  0.2436 -1.2567 -0.8814
  705SOL     OW 2706   0.528   2.191   0.949 -0.9134  0.3468  0.0998
  705SOL    HW1 2707   0.560   2.244   1.022 -1.0073  1.5377 -0.6899
  705SOL    HW2 2708   0.446   2.153   0.980 -1.3401  1.4532  0.3556
  706SOL     OW 2709   0.392   2.357   0.369  0.0541 -0.2594  0.2281
  706SOL    HW1 2710   0.312   2.351   0.316  0.1742  0.4833 -0.0428
  706SOL    HW2 2711   0.361   2.363   0.459 -0.2328  0.9154  0.0656
  707SOL     OW 2712   6.199   2.265   0.145 -0.1350  0.2901 -0.0457
  707SOL    HW1 2713   6.226   2.229   0.061  2.7344 -1.5928  1.5245
  707SOL    HW2 2714   6.270   2.323   0.171 -0.3826 -0.0759  1.5855
  708SOL     OW 2715   3.627   4.375   1.674 -0.0308 -0.4693  0.1162
  708SOL    HW1 2716   3.571   4.448   1.699  0.2789  0.4819 -1.7474
  708SOL    HW2 2717   3.690   4.367   1.746  0.5496  1.8094 -0.0606
  709SOL     OW 2718   0.921   3.693   3.038 -0.0798 -0.2776  0.1069
  709SOL    HW1 2719   0.877   3.665   3.118 -0.6217  1.0369  0.2776
  709SOL    HW2 2720   0.998   3.635   3.032 -0.0838 -0.4540  1.5145
  710SOL     OW 2721   6.338   4.693   0.390 -0.0013 -0.4123  0.1787
  710SOL    HW1 2722   6.400   4.716   0.459  0.5956 -0.2007 -0.4224
  710SOL    HW2 2723   6.337   4.770   0.332 -0.9504 -0.3429  0.2655
  711SOL     OW 2724   1.240   0.258   1.647 -0.0497  0.3937 -0.2105
  711SOL    HW1 2725   1.146   0.258   1.665 -0.0066 -0.8879  0.0851
  711SOL    HW2 2726   1.281   0.272   1.733  0.0458 -0.1548 -0.1643
  712SOL     OW 2727   0.097   2.588   0.966 -0.1429 -0.0032 -0.3293
  712SOL    HW1 2728   0.066   2.597   1.056 -0.0411 -0.5935 -0.2254
  712SOL    HW2 2729   0.080   2.496   0.944 -3.6749  0.9261 -2.2219
  713SOL     OW 2730   1.321   4.192   3.329 -0.1353  0.2890 -0.1726
  713SOL    HW1 2731   1.348   4.277   3.295 -0.2365  0.0009 -0.9846
  713SOL    HW2 2732   1.308   4.207   3.423  0.3186  1.0476 -0.2242
  714SOL     OW 2733   3.821   4.927   2.820  0.0323 -0.3294  0.0132
  714SOL    HW1 2734   3.840   4.946   2.912  0.8590  2.3364 -0.6286
  714SOL    HW2 2735   3.726   4.918   2.817  0.1365 -3.1371  1.4927
  715SOL     OW 2736   0.786   1.676   3.110 -0.6486  0.2014  0.2825
  715SOL    HW1 2737   0.692   1.661   3.094 -0.5825 -1.1989  1.0162
  715SOL    HW2 2738   0.789   1.710   3.200 -0.4964  0.9629 -0.0046
  716SOL     OW 2739   0.127   3.957   1.920  0.2134 -0.0695 -0.0774
  716SOL    HW1 2740   0.055   4.004   1.877 -0.9889  0.8501  2.6636
  716SOL    HW2 2741   0.198   4.021   1.924  0.5680 -0.3721 -1.1777
  717SOL     OW 2742   0.931   1.687   2.315  0.8578 -0.5832 -0.0626
  717SOL    HW1 2743   0.882   1.713   2.393 -0.0091 -1.0812 -0.4278
  717SOL    HW2 2744   0.936   1.592   2.320  0.1361 -0.6916 -0.9704
  718SOL     OW 2745   5.072   4.932   2.895  0.2061 -0.3309  0.2019
  718SOL    HW1 2746   4.988   4.919   2.938 -0.8904  2.5742 -0.8386
  718SOL    HW2 2747   5.113   4.845   2.895 -2.7805 -1.8542  0.7151
  719SOL     OW 2748   5.889   4.847   0.116  0.5458 -0.9481  0.5379
  719SOL    HW1 2749   5.807   4.813   0.152 -0.9138  2.4347  0.7544
  719SOL    HW2 2750   5.892   4.814   0.026 -1.3405 -0.7453  0.3688
  720SOL     OW 2751   3.065   0.753   0.500  0.6907 -0.1451  0.8752
  720SOL    HW1 2752   3.145   0.760   0.448 -0.2468  3.6256 -0.3282
  720SOL    HW2 2753   3.038   0.843   0.517 -1.9521 -1.2277  3.4890
  721SOL     OW 2754   5.880   1.682   1.128  0.2547  0.3608 -0.4267
  721SOL    HW1 2755   5.850   1.674   1.038  0.6441 -1.2232 -0.4543
  721SOL    HW2 2756   5.841   1.763   1.160 -0.4803  0.5650 -1.7828
  722SOL     OW 2757   7.186   3.450   0.908 -0.4480 -0.1316  0.0878
  722SOL    HW1 2758   7.195   3.398   0.988 -1.1492 -1.4748 -0.6609
  722SOL    HW2 2759   7.092   3.470   0.903 -0.3595  0.2221 -0.2293
  723SOL     OW 2760   0.719   4.989   1.806  0.1149 -0.0297  0.0930
  723SOL    HW1 2761   0.787   4.932   1.842  0.0850 -0.5286 -0.6181
  723SOL    HW2 2762   0.696   5.047   1.878 -1.6482 -2.5156  1.6862
  724SOL     OW 2763   6.842   5.181   1.023  0.4980 -0.1545 -0.0293
  724SOL    HW1 2764   6.792   5.261   1.039 -0.6541 -1.0697  1.1800
  724SOL    HW2 2765   6.800   5.141   0.947  2.8274  1.6913 -2.4895
  725SOL     OW 2766   1.055   5.215   3.300  0.2587 -0.4462 -0.1530
  725SOL    HW1 2767   1.005   5.168   3.366  0.4541 -1.1025 -0.4678
  725SOL    HW2 2768   1.144   5.180   3.307  0.8340  1.0847  0.7695
  726SOL     OW 2769   0.526   2.470   3.129  0.0994  0.1065  0.5695
  726SOL    HW1 2770   0.603   2.525   3.113 -0.4426  1.1930  1.5825
  726SOL    HW2 2771   0.533   2.446   3.221 -0.5207 -0.2105  0.5353
  727SOL     OW 2772   4.505   1.659   2.521 -0.4081  0.3867 -0.4440
  727SOL    HW1 2773   4.525   1.642   2.613  0.8608  1.0774 -0.5708
  727SOL    HW2 2774   4.563   1.600   2.473  0.3627  1.4289 -0.8132
  728SOL     OW 2775   1.428   1.271   0.809 -0.0611  0.2323  0.1558
  728SOL    HW1 2776   1.344   1.225   0.811 -0.5705  1.0842 -0.9309
  728SOL    HW2 2777   1.474   1.233   0.734  0.6452 -0.4054  0.8928
  729SOL     OW 2778   3.576   2.517   2.303  0.6746 -0.4225 -0.6832
  729SOL    HW1 2779   3.558   2.519   2.210  1.2328 -0.1495 -0.7921
  729SOL    HW2 2780   3.646   2.581   2.315 -0.0627  0.2700  0.0693
  730SOL     OW 2781   1.622   1.335   2.320  0.0483 -0.2442  0.0513
  730SOL    HW1 2782   1.553   1.399   2.304 -0.3522 -0.7494 -0.3084
  730SOL    HW2 2783   1.619   1.277   2.244 -0.8027 -1.7463  1.1620
  731SOL     OW 2784   5.183   0.184   1.134  0.0588 -0.7523 -0.4729
  731SOL    HW1 2785   5.148   0.157   1.049 -0.1646  1.0611 -0.9786
  731SOL    HW2 2786   5.276   0.201   1.118  0.1613 -1.0068 -0.1853
  732SOL     OW 2787   3.706   3.295   0.151 -0.2570  0.2111 -0.2875
  732SOL    HW1 2788   3.737   3.281   0.062 -0.9430 -0.0060 -0.4993
  732SOL    HW2 2789   3.611   3.291   0.144 -0.3259  0.5065  0.4042
  733SOL     OW 2790   5.605   4.268   3.207  0.3121 -0.2443  0.0351
  733SOL    HW1 2791   5.596   4.295   3.299  0.7049 -0.7163  0.2178
  733SOL    HW2 2792   5.672   4.327   3.172  1.0409 -0.8388  0.3863
  734SOL     OW 2793   6.572   4.522   0.649  0.2953 -0.7358 -0.3288
  734SOL    HW1 2794   6.553   4.429   0.653 -0.5373 -0.7317 -2.7403
  734SOL    HW2 2795   6.490   4.565   0.673  0.7199 -0.5743  0.9367
  735SOL     OW 2796   0.339   0.837   1.221  0.0845  0.3089 -0.1841
  735SOL    HW1 2797   0.249   0.849   1.253  0.2454  1.0879 -0.0195
  735SOL    HW2 2798   0.369   0.757   1.264 -0.3991  0.2468  0.0464
  736SOL     OW 2799   2.523   4.737   0.779 -0.0007  0.4127  0.6013
  736SOL    HW1 2800   2.580   4.742   0.702 -0.3434 -0.8083  0.2603
  736SOL    HW2 2801   2.542   4.818   0.828  1.5542  0.3277  0.1772
  737SOL     OW 2802   6.038   0.743   3.072  0.6190  0.0650  0.6438
  737SOL    HW1 2803   6.029   0.665   3.127 -0.4601 -0.8086 -0.7021
  737SOL    HW2 2804   5.973   0.804   3.105  0.7521 -0.0042  1.0396
  738SOL     OW 2805   6.762   0.366   0.162  0.0602  0.5317 -0.1467
  738SOL    HW1 2806   6.776   0.430   0.092  2.4946  0.7275  0.4405
  738SOL    HW2 2807   6.670   0.376   0.186 -0.6649  0.9763 -2.7782
  739SOL     OW 2808   6.934   2.237   1.861 -0.2441 -0.9861  0.0053
  739SOL    HW1 2809   6.900   2.160   1.908 -0.7170 -0.5936  0.3266
  739SOL    HW2 2810   7.005   2.269   1.916 -2.0077  0.5975  1.5248
  740SOL     OW 2811   3.908   1.053   2.825  0.3347  0.2879 -0.0409
  740SOL    HW1 2812   3.895   1.002   2.745 -1.2439  0.0696  0.3227
  740SOL    HW2 2813   3.901   1.145   2.796  0.2698  0.2244 -0.2301
  741SOL     OW 2814   2.861   3.260   1.113 -0.7650 -0.3916 -0.0532
  741SOL    HW1 2815   2.841   3.250   1.020 -1.0279  0.0259 -0.0450
  741SOL    HW2 2816   2.955   3.280   1.115 -0.0777 -3.1491 -0.0400
  742SOL     OW 2817   0.383   3.171   2.064  0.1323 -0.0357  0.2942
  742SOL    HW1 2818   0.457   3.147   2.009 -1.2934  1.0238 -2.2472
  742SOL    HW2 2819   0.370   3.264   2.047  0.1584  0.5883  3.2040
  743SOL     OW 2820   5.446   1.482   1.202  0.5498  0.1709  0.2809
  743SOL    HW1 2821   5.367   1.534   1.216  1.3334  1.6337 -0.4896
  743SOL    HW2 2822   5.486   1.519   1.123  1.0440 -1.7741 -0.4546
  744SOL     OW 2823   1.311   3.815   0.301 -0.0884 -0.0699  0.0696
  744SOL    HW1 2824   1.294   3.752   0.231  0.1087 -0.9406  0.7819
  744SOL    HW2 2825   1.227   3.824   0.346 -0.2946  0.7301 -0.4592
  745SOL     OW 2826   1.666   4.209   3.404  0.3587  0.0059  0.1427
  745SOL    HW1 2827   1.701   4.128   3.369  1.4832  0.5212  0.0442
  745SOL    HW2 2828   1.655   4.191   3.498  0.6318 -0.2538  0.1278
  746SOL     OW 2829   1.363   4.527   0.388  0.1758 -0.3636  0.1647
  746SOL    HW1 2830   1.302   4.514   0.461 -0.1174  1.2032  0.2444
  746SOL    HW2 2831   1.447   4.496   0.421  0.0528  0.3559  1.2213
  747SOL     OW 2832   3.740   3.992   1.289 -0.0562  0.8514  0.7897
  747SOL    HW1 2833   3.758   3.925   1.224 -0.2519  1.4675  0.0816
  747SOL    HW2 2834   3.742   3.946   1.373 -0.8858 -0.1722  0.2675
  748SOL     OW 2835   1.760   4.362   0.690  0.0174  0.0566 -0.3377
  748SOL    HW1 2836   1.815   4.409   0.752  1.7703 -0.9637 -1.0339
  748SOL    HW2 2837   1.768   4.270   0.715 -1.1701 -0.1434 -0.6302
  749SOL     OW 2838   4.267   4.356   0.558  0.1290 -0.0156 -0.4181
  749SOL    HW1 2839   4.347   4.305   0.549 -0.2386 -0.6141 -0.2843
  749SOL    HW2 2840   4.197   4.294   0.543 -0.3035  0.6442 -1.2120
  750SOL     OW 2841   6.675   0.508   2.712  0.8275  0.3786 -0.4527
  750SOL    HW1 2842   6.611   0.570   2.675 -1.0749 -0.4862  1.1959
  750SOL    HW2 2843   6.681   0.438   2.646  0.1790  0.5574 -0.7111
  751SOL     OW 2844   0.282   2.317   0.614  0.7518  0.2610 -0.2744
  751SOL    HW1 2845   0.198   2.342   0.652  0.8762  1.2611 -0.6261
  751SOL    HW2 2846   0.278   2.221   0.607 -0.7660  0.3665 -1.2540
  752SOL     OW 2847   0.423   0.457   1.624  0.8334 -0.6362  0.0362
  752SOL    HW1 2848   0.372   0.394   1.573  0.8937 -0.6595  0.0041
  752SOL    HW2 2849   0.407   0.541   1.581  0.9308 -0.6649 -0.0582
  753SOL     OW 2850   2.793   2.799   1.380 -0.1182  0.2205 -0.0033
  753SOL    HW1 2851   2.820   2.887   1.355  0.4124  0.0172 -0.1533
  753SOL    HW2 2852   2.837   2.783   1.463 -0.6882  0.3201  0.3254
  754SOL     OW 2853   5.936   2.005   0.084  0.0954 -0.3769  0.0617
  754SOL    HW1 2854   6.008   1.981   0.025  0.4333 -1.4377  0.8574
  754SOL    HW2 2855   5.896   1.921   0.107  1.9235 -0.4398  3.7557
  755SOL     OW 2856   0.314   0.347   1.375  0.2579  0.3357 -0.4105
  755SOL    HW1 2857   0.221   0.365   1.362  0.0247  2.2992  2.7361
  755SOL    HW2 2858   0.322   0.252   1.369 -2.2585 -0.0007  0.5876
  756SOL     OW 2859   5.367   5.260   0.969  0.5123  0.5966  0.3843
  756SOL    HW1 2860   5.293   5.262   1.030  0.4890 -0.5014  0.4208
  756SOL    HW2 2861   5.415   5.181   0.993 -0.5317 -0.9288 -2.1689
  757SOL     OW 2862   2.709   3.982   1.692 -0.0276 -0.1999  1.0844
  757SOL    HW1 2863   2.729   4.072   1.716  1.6424 -0.5690  1.1685
  757SOL    HW2 2864   2.622   3.987   1.651 -0.2393  1.3310  1.6452
  758SOL     OW 2865   3.949   1.529   2.850  0.5928  0.0036 -0.0181
  758SOL    HW1 2866   3.917   1.550   2.762  0.6345 -1.0522 -0.2969
  758SOL    HW2 2867   3.886   1.466   2.884 -0.1035  1.2980  1.2064
  759SOL     OW 2868   3.239   3.302   2.730 -0.4072  0.3558 -0.2789
  759SOL    HW1 2869   3.208   3.370   2.791  0.5212 -0.5532  1.2881
  759SOL    HW2 2870   3.255   3.349   2.648 -0.5539  1.8781  0.5115
  760SOL     OW 2871   5.535   1.994   2.114  0.0674  0.4530 -0.2510
  760SOL    HW1 2872   5.581   1.923   2.070  1.5285  1.4360 -0.3594
  760SOL    HW2 2873   5.549   2.070   2.058  0.7236  1.3984  1.1335
  761SOL     OW 2874   0.656   4.601   1.335 -0.2581  0.4296 -0.3821
  761SOL    HW1 2875   0.741   4.578   1.374  0.0463  1.8733 -0.1310
  761SOL    HW2 2876   0.600   4.525   1.354  0.2255  0.5356  1.8275
  762SOL     OW 2877   5.165   1.519   2.550 -0.5237  0.4063 -0.4102
  762SOL    HW1 2878   5.091   1.488   2.498 -0.5091  1.2738 -0.9686
  762SOL    HW2 2879   5.185   1.605   2.514 -0.4880  1.0098  1.0201
  763SOL     OW 2880   3.828   0.491   0.585 -0.0349  0.0813  0.6079
  763SOL    HW1 2881   3.787   0.406   0.569  0.5518  0.1558 -1.6074
  763SOL    HW2 2882   3.774   0.553   0.537  0.6583  0.6659  0.5631
  764SOL     OW 2883   4.794   4.655   3.086 -0.1815  0.5740  0.3084
  764SOL    HW1 2884   4.717   4.696   3.046 -0.3931  1.1606  1.2861
  764SOL    HW2 2885   4.762   4.570   3.116 -0.0759  0.2173 -0.5433
  765SOL     OW 2886   1.937   1.037   3.409  0.1240 -0.3654  0.1409
  765SOL    HW1 2887   2.023   1.020   3.369 -0.3636 -1.1909 -0.5833
  765SOL    HW2 2888   1.884   0.962   3.384 -1.3198  0.9350 -0.8553
  766SOL     OW 2889   5.934   0.375   1.514 -0.0370 -0.1566  0.2770
  766SOL    HW1 2890   5.907   0.308   1.451 -2.5246  0.1589  0.9092
  766SOL    HW2 2891   5.853   0.401   1.557  1.5400 -0.4042  3.6864
  767SOL     OW 2892   5.033   3.995   2.807 -0.0533 -0.4627  0.0265
  767SOL    HW1 2893   5.007   4.035   2.724  0.0511  0.3241  0.3733
  767SOL    HW2 2894   5.070   3.910   2.782  1.5516  0.4682 -0.8946
  768SOL     OW 2895   3.620   4.051   0.082  1.0966  0.0759 -0.0641
  768SOL    HW1 2896   3.684   4.004   0.028  0.5323 -0.7211 -0.0543
  768SOL    HW2 2897   3.635   4.017   0.170  2.0402  1.3990  0.3030
  769SOL     OW 2898   2.893   0.371   2.226 -0.3044  0.2176 -0.0482
  769SOL    HW1 2899   2.955   0.303   2.199 -1.1052 -0.1635 -1.0183
  769SOL    HW2 2900   2.889   0.431   2.151  0.4789  1.4244  0.8416
  770SOL     OW 2901   4.487   3.360   0.723 -0.4549 -0.0260 -0.2186
  770SOL    HW1 2902   4.471   3.302   0.797 -0.8708 -0.7780 -0.8766
  770SOL    HW2 2903   4.575   3.394   0.737 -1.3067  1.5476  1.7200
  771SOL     OW 2904   2.921   2.379   0.076  0.1318 -0.3837 -0.7833
  771SOL    HW1 2905   2.918   2.361  -0.018 -0.8247 -0.6905 -0.7084
  771SOL    HW2 2906   2.885   2.300   0.117  0.1283 -0.0795 -0.1852
  772SOL     OW 2907   7.259   2.386   2.334  0.1647  0.2307 -0.0739
  772SOL    HW1 2908   7.326   2.454   2.339  0.6457  0.0942 -2.9205
  772SOL    HW2 2909   7.305   2.310   2.297 -1.2894 -0.2572 -0.9542
  773SOL     OW 2910   5.865   1.131   1.618  0.2941  0.4509  0.8952
  773SOL    HW1 2911   5.850   1.116   1.711 -1.1519  1.2450  0.8140
  773SOL    HW2 2912   5.813   1.064   1.574 -1.8677  2.1560  0.6448
  774SOL     OW 2913   6.156   1.900   2.158  0.4534 -0.2045  0.2885
  774SOL    HW1 2914   6.116   1.934   2.078 -0.3671 -0.8746  0.3985
  774SOL    HW2 2915   6.239   1.861   2.129  1.3272  1.6201  0.1289
  775SOL     OW 2916   1.128   0.137   2.522  0.4621 -0.1689 -0.4691
  775SOL    HW1 2917   1.045   0.178   2.548  0.4876  0.1444 -0.8739
  775SOL    HW2 2918   1.183   0.210   2.494  0.6502 -0.4443 -0.8231
  776SOL     OW 2919   4.433   0.547   1.371 -0.1472  0.0411  0.0448
  776SOL    HW1 2920   4.470   0.500   1.446  0.4216  1.5327  0.7252
  776SOL    HW2 2921   4.501   0.541   1.303 -0.4764 -0.9119 -0.2295
  777SOL     OW 2922   3.678   1.214   1.038  0.5415  0.0581  0.2837
  777SOL    HW1 2923   3.709   1.302   1.018 -1.0697  0.8041  0.8939
  777SOL    HW2 2924   3.591   1.227   1.076  0.9099 -1.6830  1.9041
  778SOL     OW 2925   0.362   3.340   0.867  0.2855 -0.2391  0.0859
  778SOL    HW1 2926   0.281   3.319   0.822  0.8177 -3.1570  0.2876
  778SOL    HW2 2927   0.337   3.348   0.959  0.1880 -1.0749  0.1401
  779SOL     OW 2928   4.079   3.365   2.539 -0.7395  0.2343  0.3655
  779SOL    HW1 2929   4.033   3.361   2.455  2.5528  2.0821 -1.7522
  779SOL    HW2 2930   4.163   3.322   2.523 -0.0399  0.5434  2.7760
  780SOL     OW 2931   3.837   2.851   0.356  0.2885  0.3816  0.0833
  780SOL    HW1 2932   3.803   2.789   0.291  0.3334 -1.9215  2.1162
  780SOL    HW2 2933   3.764   2.911   0.373 -0.0315  0.4328 -1.3719
  781SOL     OW 2934   0.023   3.190   3.036 -0.0251 -0.1313  0.0909
  781SOL    HW1 2935  -0.038   3.241   3.090  0.8622  0.4021  0.6235
  781SOL    HW2 2936   0.041   3.112   3.089 -0.1381 -0.2241 -0.0070
  782SOL     OW 2937   0.767   0.571   2.711 -0.3311 -0.4063  0.6753
  782SOL    HW1 2938   0.763   0.667   2.711  0.5842 -0.3034  2.9272
  782SOL    HW2 2939   0.682   0.543   2.744 -0.2063 -0.2967  1.1038
  783SOL     OW 2940   4.446   0.503   0.865  0.2635 -0.2335 -0.0979
  783SOL    HW1 2941   4.369   0.528   0.813  0.6344  1.0378 -0.0499
  783SOL    HW2 2942   4.519   0.511   0.804  0.5386 -0.0351  0.2627
  784SOL     OW 2943   6.190   1.145   0.838 -0.2608  0.2231  0.0504
  784SOL    HW1 2944   6.277   1.185   0.832 -0.1836  0.0860  0.2468
  784SOL    HW2 2945   6.131   1.220   0.846  0.0111  0.2961  2.0150
  785SOL     OW 2946   1.396   4.648   1.657 -0.0302  0.6161 -0.0103
  785SOL    HW1 2947   1.373   4.575   1.598 -1.9617  0.8075  0.4382
  785SOL    HW2 2948   1.419   4.720   1.598 -1.2462  0.5870 -0.5432
  786SOL     OW 2949   4.804   2.782   0.476  0.2240  0.0234  1.1812
  786SOL    HW1 2950   4.881   2.820   0.433 -2.0399  0.3291 -3.1102
  786SOL    HW2 2951   4.801   2.692   0.444 -0.3076 -0.5378  2.7300
  787SOL     OW 2952   1.815   2.158   2.229 -0.3219  0.1477  0.0821
  787SOL    HW1 2953   1.719   2.162   2.221 -0.2164  1.1966 -0.9031
  787SOL    HW2 2954   1.845   2.135   2.142  0.3810  0.9703  0.1025
  788SOL     OW 2955   1.671   3.387   0.268  0.2771  0.8235  0.4162
  788SOL    HW1 2956   1.671   3.326   0.342  0.0329 -0.8308 -0.8598
  788SOL    HW2 2957   1.580   3.412   0.257 -0.0369 -0.5357 -0.4875
  789SOL     OW 2958   0.002   5.149   0.896  0.1074  0.0437  0.3145
  789SOL    HW1 2959  -0.019   5.145   0.989  0.8775  0.9389  0.5513
  789SOL    HW2 2960   0.053   5.230   0.887  0.7953 -0.4840 -0.7270
  790SOL     OW 2961   4.212   3.612   1.218  0.4205 -0.3038  0.3513
  790SOL    HW1 2962   4.170   3.534   1.254 -2.4791  1.1070  0.3578
  790SOL    HW2 2963   4.157   3.684   1.248  1.0604  1.4503 -2.3671
  791SOL     OW 2964   7.054   3.861   0.671 -0.4494  0.1726 -0.5943
  791SOL    HW1 2965   7.048   3.841   0.577  0.2482  1.7133 -1.0019
  791SOL    HW2 2966   7.137   3.907   0.680 -2.3430  3.8268  0.0013
  792SOL     OW 2967   5.162   2.932   2.937 -0.8624 -0.5389 -0.1584
  792SOL    HW1 2968   5.102   2.858   2.945 -0.3017 -0.9573  0.2037
  792SOL    HW2 2969   5.111   3.007   2.968 -1.5301 -0.7095 -0.8093
  793SOL     OW 2970   6.047   3.432   3.264  0.1889 -0.7055  0.7922
  793SOL    HW1 2971   5.990   3.365   3.302 -0.6717 -0.4034  0.0662
  793SOL    HW2 2972   6.083   3.478   3.340 -3.4172  1.5044  1.4095
  794SOL     OW 2973   0.185   2.993   2.037 -0.1613  0.3328  0.1915
  794SOL    HW1 2974   0.218   2.903   2.033  1.1126  0.7392  0.8767
  794SOL    HW2 2975   0.261   3.047   2.015 -0.5451  1.2933  1.1384
  795SOL     OW 2976   0.085   1.869   1.988 -0.0881  0.0250  0.2110
  795SOL    HW1 2977   0.154   1.933   2.005  0.2986 -0.5867  0.9928
  795SOL    HW2 2978   0.089   1.808   2.062 -0.7833 -0.6144 -0.2570
  796SOL     OW 2979   0.017   0.388   0.709  0.4102  0.1024 -0.5938
  796SOL    HW1 2980   0.054   0.426   0.629 -1.2726 -0.7292 -1.8400
  796SOL    HW2 2981  -0.075   0.371   0.687  0.1196 -0.9827  1.2309
  797SOL     OW 2982   3.489   0.347   0.553 -0.2511 -0.1982 -0.1446
  797SOL    HW1 2983   3.568   0.354   0.607 -1.2379 -0.7280  1.4198
  797SOL    HW2 2984   3.418   0.337   0.615 -1.6586  0.8713 -1.4911
  798SOL     OW 2985   6.863   0.223   0.931  0.4822 -0.4571 -0.2305
  798SOL    HW1 2986   6.958   0.233   0.936  0.4407  0.7358 -1.3370
  798SOL    HW2 2987   6.838   0.191   1.017  1.8895 -0.8243  0.0656
  799SOL     OW 2988   3.698   5.310   0.107  0.6229  0.4545 -0.0438
  799SOL    HW1 2989   3.630   5.256   0.147  1.9132 -1.2542 -0.0606
  799SOL    HW2 2990   3.716   5.377   0.174  1.2123 -1.0565  1.3892
  800SOL     OW 2991   1.003   0.612   0.850 -0.3217 -0.2409  0.6190
  800SOL    HW1 2992   1.077   0.672   0.841 -0.7435  0.3580  1.0773
  800SOL    HW2 2993   0.950   0.649   0.921 -1.3294 -0.3838 -0.0339
  801SOL     OW 2994   1.629   0.557   0.119 -0.7379 -0.2225  0.9211
  801SOL    HW1 2995   1.667   0.645   0.123 -1.4426  0.1359  0.2783
  801SOL    HW2 2996   1.657   0.523   0.034 -1.1916 -0.2606  0.7832
  802SOL     OW 2997   6.265   2.498   1.477 -0.3876 -0.3180  0.1656
  802SOL    HW1 2998   6.199   2.468   1.540 -0.9487  0.8020  0.1421
  802SOL    HW2 2999   6.311   2.568   1.522 -1.1010  0.8151 -0.8106
  803SOL     OW 3000   5.255   0.662   0.802 -0.1987 -0.3974 -0.2243
  803SOL    HW1 3001   5.184   0.720   0.830  0.6972  0.0553  1.2010
  803SOL    HW2 3002   5.218   0.574   0.812 -0.4026 -0.1874  1.0188
  804SOL     OW 3003   0.082   2.994   2.541  0.0317  0.3723  0.1462
  804SOL    HW1 3004  -0.013   2.993   2.530  0.1327  2.7847 -1.5360
  804SOL    HW2 3005   0.095   3.028   2.630 -0.6394 -0.3574  0.5422
  805SOL     OW 3006   3.030   0.460   0.465 -0.1094 -0.5287  0.0179
  805SOL    HW1 3007   3.108   0.507   0.497  0.9227 -0.2480 -2.6486
  805SOL    HW2 3008   3.062   0.373   0.442 -0.8860 -0.8480  0.1338
  806SOL     OW 3009   1.046   0.843   2.854  0.1460  0.5867 -0.0304
  806SOL    HW1 3010   1.101   0.890   2.916  0.1889  0.0613  0.3345
  806SOL    HW2 3011   1.108   0.807   2.790  0.1569  0.5828 -0.0174
  807SOL     OW 3012   6.812   0.397   3.262  0.0349  0.3149 -0.6252
  807SOL    HW1 3013   6.784   0.455   3.333 -0.7854 -0.3556 -0.3835
  807SOL    HW2 3014   6.731   0.359   3.229  0.4779  0.0457 -1.4329
  808SOL     OW 3015   6.811   0.015   1.369 -0.1212 -0.1619 -0.0926
  808SOL    HW1 3016   6.776  -0.074   1.366 -0.5877 -0.0445  1.3254
  808SOL    HW2 3017   6.903   0.005   1.344 -0.0336 -1.1329  0.5481
  809SOL     OW 3018   3.096   3.348   0.406 -0.1166  0.4338  0.3334
  809SOL    HW1 3019   3.023   3.307   0.359 -0.7883  0.2106  1.5317
  809SOL    HW2 3020   3.170   3.341   0.346 -0.6896 -0.7810 -0.2653
  810SOL     OW 3021   6.956   3.198   0.654 -0.1173  0.2593 -0.4734
  810SOL    HW1 3022   6.877   3.161   0.694 -0.0874  0.5794 -0.1147
  810SOL    HW2 3023   6.925   3.244   0.577 -0.1670 -0.4278 -0.8655
  811SOL     OW 3024   1.886   5.312   0.380 -0.3727  1.0525  0.1971
  811SOL    HW1 3025   1.980   5.298   0.370 -0.4678  1.6196 -2.1534
  811SOL    HW2 3026   1.850   5.225   0.397  0.6884  1.0570  3.1290
  812SOL     OW 3027   4.448   3.116   0.355  1.2976 -0.2461 -0.5284
  812SOL    HW1 3028   4.519   3.176   0.331  1.8628 -0.9729 -0.7249
  812SOL    HW2 3029   4.384   3.127   0.285  1.8535 -0.5944 -1.1059
  813SOL     OW 3030   5.083   4.778   2.074  0.1258 -0.6875  0.0209
  813SOL    HW1 3031   5.095   4.792   1.980  1.0106  0.7433  0.3012
  813SOL    HW2 3032   4.991   4.799   2.090  0.1192 -0.3330 -0.4470
  814SOL     OW 3033   3.178   1.690   1.127  0.1698  0.4317 -0.8957
  814SOL    HW1 3034   3.198   1.766   1.073 -1.4566  1.6487  0.1250
  814SOL    HW2 3035   3.193   1.720   1.217 -1.5214 -0.0961 -0.4109
  815SOL     OW 3036   1.172   2.793   0.599  0.1915 -0.3602 -0.2056
  815SOL    HW1 3037   1.203   2.883   0.613 -0.8828  0.0803 -0.5723
  815SOL    HW2 3038   1.086   2.803   0.558  0.2465 -1.5687 -0.6518
  816SOL     OW 3039   2.363   0.873   0.702 -0.3556  0.0821  0.1881
  816SOL    HW1 3040   2.425   0.874   0.629  0.6157 -0.5396  0.9800
  816SOL    HW2 3041   2.400   0.934   0.765 -0.7355 -0.0360  0.5278
  817SOL     OW 3042   6.200   1.151   3.172  0.0053 -0.2552 -1.1479
  817SOL    HW1 3043   6.227   1.071   3.127 -1.7986 -1.4463 -0.2682
  817SOL    HW2 3044   6.280   1.183   3.214  0.8251 -1.4705 -1.7199
  818SOL     OW 3045   2.343   1.960   1.396  0.3642  0.0470 -0.2955
  818SOL    HW1 3046   2.421   1.995   1.440 -0.1887  1.3125 -0.2621
  818SOL    HW2 3047   2.297   2.038   1.364  1.4864 -0.7499 -4.5171
  819SOL     OW 3048   6.357   1.812   1.877 -0.3790  0.1507  0.1398
  819SOL    HW1 3049   6.275   1.762   1.879 -0.2976  0.0296  0.4250
  819SOL    HW2 3050   6.389   1.801   1.788 -1.0174  0.7519 -0.1816
  820SOL     OW 3051   3.959   4.409   0.669 -0.4969 -0.7646 -0.1747
  820SOL    HW1 3052   3.984   4.391   0.760  1.2988  1.0806 -0.2334
  820SOL    HW2 3053   3.910   4.491   0.673 -0.2897 -0.5990 -0.8916
  821SOL     OW 3054   0.008   2.969   1.574 -0.1417  0.5740 -0.0239
  821SOL    HW1 3055   0.037   2.891   1.622 -1.4807  1.2483  2.0052
  821SOL    HW2 3056   0.009   3.039   1.640 -2.6758  1.4072 -0.7719
  822SOL     OW 3057   2.034   0.846   1.547 -0.1707  0.3143 -0.1231
  822SOL    HW1 3058   1.955   0.895   1.526 -0.7502  0.4162  2.0479
  822SOL    HW2 3059   2.014   0.802   1.630  0.8610 -2.4227 -1.2056
  823SOL     OW 3060   6.688   1.337   2.096 -0.1492  0.2157  0.5296
  823SOL    HW1 3061   6.725   1.327   2.008  1.9603 -0.9160  1.4699
  823SOL    HW2 3062   6.606   1.287   2.093 -0.5940  0.9774 -1.0332
  824SOL     OW 3063   3.244   1.688   0.466 -0.0624 -0.1508  0.1579
  824SOL    HW1 3064   3.258   1.759   0.404 -1.7627 -0.3077 -0.4672
  824SOL    HW2 3065   3.173   1.720   0.523 -1.1603 -1.4611 -0.4016
  825SOL     OW 3066   7.296   4.507   2.174 -0.0907  0.3140  0.3685
  825SOL    HW1 3067   7.218   4.539   2.220 -0.9051 -1.6377  0.4203
  825SOL    HW2 3068   7.289   4.545   2.087  0.5656  2.6429  1.2416
  826SOL     OW 3069   0.540   5.032   1.229 -0.0292  0.6451  0.0300
  826SOL    HW1 3070   0.568   4.969   1.296 -0.9278 -2.6394 -2.4035
  826SOL    HW2 3071   0.621   5.056   1.183 -0.0416 -2.8387 -2.1511
  827SOL     OW 3072   0.495   1.994   1.251  0.0671 -0.2730  0.1575
  827SOL    HW1 3073   0.552   2.062   1.287  1.5188 -2.3529  2.0669
  827SOL    HW2 3074   0.425   2.042   1.205  0.6662  2.4703  1.9241
  828SOL     OW 3075   1.030   4.097   1.306 -0.7140  0.7927  0.7834
  828SOL    HW1 3076   1.020   4.095   1.401  1.8600 -0.4290  1.1142
  828SOL    HW2 3077   1.023   4.005   1.279 -0.6985  1.0419 -0.1308
  829SOL     OW 3078   0.942   3.087   1.360 -0.2345 -0.6267  0.0006
  829SOL    HW1 3079   0.886   3.053   1.430  0.4161  0.5164  1.1002
  829SOL    HW2 3080   0.976   3.008   1.317 -0.5884 -1.3476  1.0062
  830SOL     OW 3081   3.937   1.658   0.224  0.4257 -0.1143  0.2205
  830SOL    HW1 3082   3.902   1.654   0.136  1.4345  0.3976 -0.2233
  830SOL    HW2 3083   3.999   1.731   0.222  1.1578 -0.6844  1.0942
  831SOL     OW 3084   1.997   4.641   3.084  0.0642 -0.6654 -1.0136
  831SOL    HW1 3085   1.903   4.627   3.071 -0.2476  0.0199  0.3912
  831SOL    HW2 3086   2.033   4.553   3.090 -0.7053 -0.9416 -0.1704
  832SOL     OW 3087   7.052   2.826   3.368 -0.1048  0.7403 -0.2407
  832SOL    HW1 3088   7.062   2.739   3.329 -2.2130 -0.5520  1.8755
  832SOL    HW2 3089   6.968   2.858   3.335 -0.2782  1.0944  0.5168
  833SOL     OW 3090   5.607   4.381   0.819 -0.0050  0.1270 -0.0253
  833SOL    HW1 3091   5.516   4.400   0.842  0.4342  0.6156  1.4137
  833SOL    HW2 3092   5.641   4.464   0.787  0.1827  0.1829  0.3151
  834SOL     OW 3093   5.794   0.059   0.190  0.3119 -0.3681 -0.0188
  834SOL    HW1 3094   5.768  -0.020   0.142  0.6326 -0.4607 -0.0399
  834SOL    HW2 3095   5.742   0.129   0.151  1.2072 -0.2840 -1.1087
  835SOL     OW 3096   3.154   3.933   2.798  0.0010  0.3035  0.1536
  835SOL    HW1 3097   3.162   4.026   2.779 -3.2825  0.4263 -1.3488
  835SOL    HW2 3098   3.162   3.890   2.712 -1.4698 -0.4704  0.3640
  836SOL     OW 3099   6.027   3.256   2.191 -0.6160 -0.0699  0.3447
  836SOL    HW1 3100   6.016   3.254   2.286  0.8319 -0.2802  0.5341
  836SOL    HW2 3101   6.080   3.335   2.175  0.9989 -1.1795 -0.0359
  837SOL     OW 3102   6.155   5.021   2.517 -0.9512 -0.2435 -0.6964
  837SOL    HW1 3103   6.092   5.045   2.449  2.1390  3.8144 -2.5540
  837SOL    HW2 3104   6.220   5.090   2.515  0.3373 -0.6875  5.4126
  838SOL     OW 3105   1.783   0.518   2.673 -0.2524  0.1844  0.3190
  838SOL    HW1 3106   1.875   0.534   2.692 -0.3756  2.6476 -0.7170
  838SOL    HW2 3107   1.735   0.574   2.734 -0.8328  2.5035 -2.0597
  839SOL     OW 3108   0.420   4.009   0.731 -0.0222  0.0155 -0.3920
  839SOL    HW1 3109   0.480   3.968   0.794  0.5279  0.9621 -0.2749
  839SOL    HW2 3110   0.463   4.091   0.708 -0.9017  0.3324 -0.9384
  840SOL     OW 3111   6.780   2.289   2.533 -0.4344  0.3074  0.2268
  840SOL    HW1 3112   6.845   2.310   2.466  1.7794 -0.6102  1.9423
  840SOL    HW2 3113   6.720   2.228   2.490  0.7837 -0.0923 -0.9791
  841SOL     OW 3114   4.540   5.271   3.279 -0.1685  0.1520 -0.6428
  841SOL    HW1 3115   4.550   5.234   3.191 -0.4497  0.2228 -0.7053
  841SOL    HW2 3116   4.450   5.303   3.281 -0.1457  0.1965 -0.3453
  842SOL     OW 3117   4.258   1.620   1.985  0.0051 -0.1019 -0.0847
  842SOL    HW1 3118   4.192   1.639   2.051 -0.9899  1.1173 -1.3659
  842SOL    HW2 3119   4.250   1.691   1.921  1.4889 -0.7816 -1.0945
  843SOL     OW 3120   0.020   3.245   3.425 -0.1153  0.3876  0.0570
  843SOL    HW1 3121  -0.044   3.303   3.468 -0.2457  0.7199 -0.5640
  843SOL    HW2 3122  -0.028   3.163   3.411  0.2937 -0.1445  1.5969
  844SOL     OW 3123   6.721   1.655   1.654 -0.1189 -0.2998 -0.5526
  844SOL    HW1 3124   6.735   1.602   1.732  0.3899 -1.8490 -1.6394
  844SOL    HW2 3125   6.674   1.597   1.594  0.4708  0.4670 -1.8067
  845SOL     OW 3126   3.008   2.367   2.550 -0.1003  0.6505 -0.5594
  845SOL    HW1 3127   2.964   2.451   2.535  0.1016  0.3984 -2.9108
  845SOL    HW2 3128   2.938   2.310   2.580 -0.3446  1.5079  0.5727
  846SOL     OW 3129   5.999   3.335   2.464  0.2569  0.3679  0.6770
  846SOL    HW1 3130   5.936   3.267   2.489  1.2383  0.0229  2.4430
  846SOL    HW2 3131   5.945   3.411   2.442 -0.8125 -0.4394  0.4145
  847SOL     OW 3132   6.066   5.098   0.559  0.1024 -0.1169 -0.5357
  847SOL    HW1 3133   5.978   5.128   0.535 -0.5841 -1.0302  0.7054
  847SOL    HW2 3134   6.079   5.131   0.648 -0.0578 -2.0903  0.2724
  848SOL     OW 3135   7.035   2.623   2.945 -0.4209 -0.1850 -0.1870
  848SOL    HW1 3136   7.002   2.709   2.921  0.9718  0.0641 -1.3486
  848SOL    HW2 3137   7.001   2.564   2.876  0.0953 -0.2319 -0.4071
  849SOL     OW 3138   5.462   4.125   1.437 -0.6134  0.4873 -0.1327
  849SOL    HW1 3139   5.533   4.086   1.488 -0.4430 -0.4919 -1.0879
  849SOL    HW2 3140   5.504   4.194   1.386 -0.5103  0.4682 -0.0743
  850SOL     OW 3141   2.036   1.077   3.101 -0.3388 -0.4773  0.1645
  850SOL    HW1 3142   2.131   1.073   3.113 -0.2652 -1.0319 -0.5012
  850SOL    HW2 3143   2.012   1.167   3.121  0.1188 -0.6774  1.7424
  851SOL     OW 3144   0.747   3.951   1.574  0.4972  0.5400 -0.1472
  851SOL    HW1 3145   0.737   3.959   1.669 -0.4409  1.6011 -0.3120
  851SOL    HW2 3146   0.780   3.863   1.561 -0.5877 -0.0881  1.0893
  852SOL     OW 3147   3.796   4.647   3.072  0.4141  0.6937 -0.1387
  852SOL    HW1 3148   3.829   4.611   2.989  1.8463 -3.0733  1.8178
  852SOL    HW2 3149   3.873   4.653   3.128 -0.7934  1.2859  1.5335
  853SOL     OW 3150   3.418   4.299   2.078  0.1419 -0.1978  0.1974
  853SOL    HW1 3151   3.384   4.377   2.034  0.4969  1.2686  2.3594
  853SOL    HW2 3152   3.470   4.254   2.011  0.0527  1.5150 -1.0830
  854SOL     OW 3153   7.211   3.797   0.978 -0.0211  0.3802 -0.2558
  854SOL    HW1 3154   7.243   3.720   1.025 -0.0670  0.6493  0.2219
  854SOL    HW2 3155   7.232   3.779   0.886  0.0234 -0.1714 -0.1421
  855SOL     OW 3156   4.762   2.990   2.069  0.0459 -0.0757  0.3156
  855SOL    HW1 3157   4.775   3.075   2.111  0.7423  0.6501 -1.2539
  855SOL    HW2 3158   4.751   3.012   1.976  0.4734 -1.7211 -0.1510
  856SOL     OW 3159   7.157   1.641   0.780 -0.7193 -0.3657  0.7638
  856SOL    HW1 3160   7.094   1.712   0.773  1.1311  1.2281 -0.8578
  856SOL    HW2 3161   7.163   1.606   0.691  0.2985 -0.8265  1.0007
  857SOL     OW 3162   4.345   3.378   3.370 -0.2436 -0.5668  0.2564
  857SOL    HW1 3163   4.365   3.348   3.281 -0.3308 -0.5104  0.2171
  857SOL    HW2 3164   4.379   3.468   3.373 -2.0370  0.1762 -0.3904
  858SOL     OW 3165   2.455   4.951   0.504 -0.1933  0.1852 -0.0953
  858SOL    HW1 3166   2.517   4.881   0.485  0.2969  1.0526 -1.8753
  858SOL    HW2 3167   2.501   5.031   0.477 -0.3548  1.3583  2.7101
  859SOL     OW 3168   2.578   3.899   3.142  0.7354 -0.2274 -0.3104
  859SOL    HW1 3169   2.650   3.961   3.148  0.4298  0.1959 -0.8510
  859SOL    HW2 3170   2.595   3.835   3.211  1.5567 -0.0673 -0.3521
  860SOL     OW 3171   1.978   2.177   3.096 -0.2378 -0.1559  0.0152
  860SOL    HW1 3172   1.908   2.223   3.143  1.1203  0.6805  1.3328
  860SOL    HW2 3173   2.056   2.190   3.151  1.1395 -0.3369 -1.7900
  861SOL     OW 3174   3.744   1.907   2.699 -0.0321  0.2899  0.4955
  861SOL    HW1 3175   3.749   2.002   2.701  0.9636  0.3418 -1.5249
  861SOL    HW2 3176   3.797   1.882   2.623  0.6918 -1.9563  1.6502
  862SOL     OW 3177   2.843   1.756   1.318  0.1610  0.2316  0.2154
  862SOL    HW1 3178   2.817   1.683   1.261  0.5774  0.9685 -0.9537
  862SOL    HW2 3179   2.891   1.714   1.389  1.4855 -0.5897 -1.0804
  863SOL     OW 3180   2.774   4.838   2.261  0.7027 -0.0843  0.1022
  863SOL    HW1 3181   2.777   4.908   2.195  1.0972 -0.2008 -0.0017
  863SOL    HW2 3182   2.845   4.859   2.321  0.3351  0.0304  0.5073
  864SOL     OW 3183   5.436   0.139   1.496 -0.4392 -0.3835  0.6776
  864SOL    HW1 3184   5.508   0.120   1.557  0.6570  0.9521 -0.1491
  864SOL    HW2 3185   5.433   0.234   1.493 -1.5224 -0.4362 -0.1763
  865SOL     OW 3186   3.518   2.684   3.039  0.4066 -0.4667  0.5847
  865SOL    HW1 3187   3.436   2.685   2.990  1.4547 -0.4370 -1.2813
  865SOL    HW2 3188   3.586   2.687   2.971  1.9488 -0.3689  2.0700
  866SOL     OW 3189   2.621   2.780   2.634 -0.5762 -0.1266  0.1112
  866SOL    HW1 3190   2.676   2.838   2.582 -0.2575 -1.5839 -1.2321
  866SOL    HW2 3191   2.533   2.817   2.627 -0.3391  0.3194 -0.5412
  867SOL     OW 3192   0.468   1.730   1.163 -0.6410  0.3347 -0.0692
  867SOL    HW1 3193   0.488   1.820   1.186  1.3272  0.3766 -1.6520
  867SOL    HW2 3194   0.483   1.725   1.068 -1.8191 -1.3859 -0.2139
  868SOL     OW 3195   1.524   1.918   1.544 -0.1287 -0.2268  0.3804
  868SOL    HW1 3196   1.555   1.935   1.455 -0.3291  0.1732  0.3870
  868SOL    HW2 3197   1.602   1.931   1.599  0.3929 -1.9834  0.1261
  869SOL     OW 3198   2.281   4.337   1.907 -0.1368  0.9705  0.9429
  869SOL    HW1 3199   2.260   4.246   1.926 -0.3339  0.7852 -0.0770
  869SOL    HW2 3200   2.196   4.380   1.896 -0.1124  0.5034 -1.8981
  870SOL     OW 3201   1.145   1.750   1.543 -0.1095  0.1413 -0.0847
  870SOL    HW1 3202   1.127   1.693   1.467 -0.1050 -0.8934  0.6716
  870SOL    HW2 3203   1.228   1.719   1.577  0.0473  0.8195  0.1573
  871SOL     OW 3204   1.730   0.666   1.360 -0.5232  0.2968  0.2696
  871SOL    HW1 3205   1.689   0.677   1.275  1.3815  1.6984 -0.5235
  871SOL    HW2 3206   1.805   0.610   1.344 -0.7530 -0.3381  1.2648
  872SOL     OW 3207   6.912   4.550   2.108  0.1535  0.3866 -0.4672
  872SOL    HW1 3208   6.951   4.504   2.034 -1.7228 -0.0447 -1.2525
  872SOL    HW2 3209   6.972   4.534   2.180  1.2918 -0.4157 -1.5393
  873SOL     OW 3210   3.220   1.687   2.163  0.6082 -0.0656  0.3376
  873SOL    HW1 3211   3.156   1.758   2.153  0.3075 -0.1773  1.3996
  873SOL    HW2 3212   3.302   1.726   2.133  0.1999  0.3103 -0.3394
  874SOL     OW 3213   3.308   1.445   0.351 -0.4611  0.3162 -0.3979
  874SOL    HW1 3214   3.290   1.522   0.405  0.3321  0.3422 -0.1579
  874SOL    HW2 3215   3.229   1.434   0.298 -1.1673  0.4283  0.5930
  875SOL     OW 3216   2.335   4.520   0.657 -0.5039  0.1719 -0.0120
  875SOL    HW1 3217   2.407   4.502   0.596  0.3032 -0.0550  0.9750
  875SOL    HW2 3218   2.374   4.575   0.725 -0.3222 -2.6387  2.3474
  876SOL     OW 3219   6.914   4.753   2.780  0.1925  0.3780  0.5082
  876SOL    HW1 3220   6.949   4.807   2.851  1.3698  0.0333  0.2071
  876SOL    HW2 3221   6.873   4.679   2.825  1.2134 -0.0025  0.8376
  877SOL     OW 3222   2.672   0.050   3.457 -0.0652 -0.0343 -0.2593
  877SOL    HW1 3223   2.647   0.047   3.549  2.2923 -0.3242  0.4415
  877SOL    HW2 3224   2.628  -0.026   3.417 -1.3725  0.2866  0.5250
  878SOL     OW 3225   3.036   0.192   2.070 -0.2144  0.0935 -0.1146
  878SOL    HW1 3226   3.094   0.122   2.038  1.3928  0.6765  1.3419
  878SOL    HW2 3227   2.949   0.167   2.039  0.5432 -1.7424 -0.9342
  879SOL     OW 3228   1.083   5.256   2.962  0.3813 -0.1848 -1.0696
  879SOL    HW1 3229   1.070   5.243   3.056  2.0936 -0.4920 -0.8451
  879SOL    HW2 3230   1.079   5.168   2.924  1.4626 -0.2644 -1.0221
  880SOL     OW 3231   4.035   5.180   2.474  0.1874  0.3292  0.2725
  880SOL    HW1 3232   4.077   5.181   2.388 -0.7287  0.2477 -0.1908
  880SOL    HW2 3233   4.090   5.236   2.528 -0.8159  2.8757 -1.1601
  881SOL     OW 3234   0.469   0.598   2.800  0.2865 -0.9290  0.0184
  881SOL    HW1 3235   0.523   0.626   2.873  2.0985  0.9094 -1.8997
  881SOL    HW2 3236   0.379   0.617   2.828  1.0955  2.7260  0.6567
  882SOL     OW 3237   6.524   4.267   0.949 -0.0779 -0.1445 -0.0355
  882SOL    HW1 3238   6.576   4.227   1.019  1.5592  0.6155 -0.7578
  882SOL    HW2 3239   6.514   4.359   0.975  0.8936  0.2412 -0.9643
  883SOL     OW 3240   6.171   3.780   2.694 -0.0004  0.4034  0.3655
  883SOL    HW1 3241   6.156   3.723   2.618 -1.0316  1.4114 -0.1979
  883SOL    HW2 3242   6.162   3.721   2.769 -1.5219 -0.1261 -0.1844
  884SOL     OW 3243   0.949   3.098   2.762 -0.1955 -0.2766  0.9521
  884SOL    HW1 3244   1.043   3.104   2.747 -0.4247 -0.0048 -0.5969
  884SOL    HW2 3245   0.923   3.185   2.790 -0.3621  0.4792 -1.3148
  885SOL     OW 3246   5.070   1.694   2.792  0.4161  0.2725 -0.4165
  885SOL    HW1 3247   5.158   1.715   2.760  2.4242 -2.0774  2.9321
  885SOL    HW2 3248   5.049   1.610   2.751  0.5391 -0.0248  0.1199
  886SOL     OW 3249   2.640   2.391   1.774 -0.1968  0.5110  0.3875
  886SOL    HW1 3250   2.615   2.459   1.712 -2.5496 -0.6794 -0.0887
  886SOL    HW2 3251   2.557   2.351   1.800  0.8401 -0.0628  3.1401
  887SOL     OW 3252   6.392   4.788   3.224  0.4329 -0.2590  0.3487
  887SOL    HW1 3253   6.364   4.801   3.133  0.9651 -1.0482  0.0662
  887SOL    HW2 3254   6.383   4.875   3.263  1.1481  0.3277 -0.7206
  888SOL     OW 3255   0.209   0.081   0.445 -0.4504  0.5654 -0.6163
  888SOL    HW1 3256   0.255   0.138   0.506 -1.1590  0.5145 -0.0234
  888SOL    HW2 3257   0.215   0.126   0.361  0.7615  0.5084 -0.5865
  889SOL     OW 3258   0.568   4.247   1.968 -0.9364  0.2790 -0.0385
  889SOL    HW1 3259   0.554   4.335   2.004  0.1757  0.4217  0.0943
  889SOL    HW2 3260   0.595   4.262   1.877 -0.7857  0.0737 -0.0284
  890SOL     OW 3261   2.467   0.280   3.154  0.1073 -0.2317  0.4673
  890SOL    HW1 3262   2.422   0.225   3.218 -0.1803 -2.0313 -1.1463
  890SOL    HW2 3263   2.512   0.217   3.097  0.3734  1.2764 -1.0660
  891SOL     OW 3264   1.014   2.017   0.710  0.2002 -0.4110  0.9053
  891SOL    HW1 3265   0.987   2.032   0.801 -0.0558 -2.6352  1.2377
  891SOL    HW2 3266   1.079   1.946   0.715 -0.0181 -0.7570 -0.6720
  892SOL     OW 3267   3.251   2.957   3.378 -0.3466 -0.3687  0.1548
  892SOL    HW1 3268   3.305   2.968   3.300  1.1965  0.8888  1.3340
  892SOL    HW2 3269   3.298   2.891   3.430 -2.2249 -2.4586 -0.6310
  893SOL     OW 3270   1.823   4.109   0.736 -1.1691  0.0884 -0.2335
  893SOL    HW1 3271   1.760   4.044   0.706  0.0336 -0.3064 -2.0686
  893SOL    HW2 3272   1.847   4.080   0.825 -1.0312 -1.7171 -0.8082
  894SOL     OW 3273   6.774   4.507   0.474  0.0424 -0.5455 -0.4080
  894SOL    HW1 3274   6.710   4.523   0.543 -0.5091  0.0293 -1.0402
  894SOL    HW2 3275   6.828   4.436   0.508 -0.6123 -0.6954  0.3511
  895SOL     OW 3276   3.655   5.332   0.939  0.0314  0.4151  0.3456
  895SOL    HW1 3277   3.698   5.284   1.010  0.8658  2.3747  1.2547
  895SOL    HW2 3278   3.610   5.404   0.984 -0.4609  0.9849 -1.0154
  896SOL     OW 3279   3.329   4.356   3.124 -0.3717 -0.3193  0.9010
  896SOL    HW1 3280   3.377   4.363   3.207 -2.6993 -1.1081  2.4405
  896SOL    HW2 3281   3.267   4.429   3.126 -1.1919 -0.9733  0.4101
  897SOL     OW 3282   0.109   5.254   2.472 -0.0284  0.6339  0.3760
  897SOL    HW1 3283   0.129   5.190   2.541 -1.6043 -0.0071  0.2806
  897SOL    HW2 3284   0.013   5.259   2.471  0.0321  2.2657 -0.3102
  898SOL     OW 3285   1.740   0.241   2.620  0.0951  0.5320 -0.1426
  898SOL    HW1 3286   1.708   0.191   2.695 -1.4506 -1.2436 -1.8845
  898SOL    HW2 3287   1.740   0.332   2.650 -0.3275 -0.1237  2.0273
  899SOL     OW 3288   2.806   4.051   3.196  0.2705  0.2170  0.1289
  899SOL    HW1 3289   2.875   4.060   3.129  0.5802 -0.3772  0.3566
  899SOL    HW2 3290   2.748   4.126   3.181  1.4789  1.2845  0.5384
  900SOL     OW 3291   6.864   0.198   2.635 -0.2689 -0.3963 -0.7522
  900SOL    HW1 3292   6.914   0.180   2.715  0.7900 -5.0296 -2.1507
  900SOL    HW2 3293   6.783   0.149   2.646 -1.1075  0.7027 -1.7160
  901SOL     OW 3294   2.264   0.106   3.322  0.0228  0.0431  0.1263
  901SOL    HW1 3295   2.268   0.120   3.417  2.2006 -0.1172  0.0953
  901SOL    HW2 3296   2.195   0.040   3.311  0.1477 -0.3844  1.6550
  902SOL     OW 3297   0.211   5.157   0.621  0.1272  0.3207  0.5369
  902SOL    HW1 3298   0.121   5.127   0.636  0.4826  0.0374  2.2968
  902SOL    HW2 3299   0.209   5.251   0.637  0.3099  0.1706  1.5027
  903SOL     OW 3300   6.736   0.056   1.116 -0.1062  0.1782  0.5177
  903SOL    HW1 3301   6.729   0.050   1.212 -1.7320 -0.1298  0.4240
  903SOL    HW2 3302   6.664   0.114   1.091  1.6070  2.0236 -0.4019
  904SOL     OW 3303   4.301   1.262   3.208  0.3175  0.3756  0.3771
  904SOL    HW1 3304   4.329   1.263   3.116  1.4078 -1.2155  0.6406
  904SOL    HW2 3305   4.223   1.317   3.210  1.6381  2.4241 -1.0293
  905SOL     OW 3306   5.282   5.309   3.278  0.4491 -0.2073 -0.1648
  905SOL    HW1 3307   5.262   5.263   3.196 -0.4049  1.3741 -0.8936
  905SOL    HW2 3308   5.197   5.314   3.323  0.8994 -0.9982  0.8180
  906SOL     OW 3309   4.129   4.431   3.242  0.6350 -0.0221  0.2091
  906SOL    HW1 3310   4.088   4.511   3.275  1.5830  0.2938  0.6728
  906SOL    HW2 3311   4.219   4.457   3.223  0.3910 -0.4720 -1.6764
  907SOL     OW 3312   5.797   3.705   0.270  0.0471 -0.2608  0.3876
  907SOL    HW1 3313   5.784   3.650   0.192  3.2125 -1.1373  0.3314
  907SOL    HW2 3314   5.821   3.791   0.235 -0.6290 -0.0475  0.4375
  908SOL     OW 3315   5.742   0.858   2.061 -0.0929 -0.2718  0.0590
  908SOL    HW1 3316   5.655   0.853   2.022  0.1216 -1.5419 -0.3129
  908SOL    HW2 3317   5.787   0.927   2.012  0.2724 -2.0129 -2.2361
  909SOL     OW 3318   0.776   4.617   2.411 -0.0765  0.1428 -0.4784
  909SOL    HW1 3319   0.727   4.587   2.488 -0.0734 -1.7393 -1.1667
  909SOL    HW2 3320   0.853   4.661   2.448 -1.4233  1.7339  0.5949
  910SOL     OW 3321   0.321   4.895   2.666 -0.3870  0.4786  0.0520
  910SOL    HW1 3322   0.380   4.848   2.724 -0.7280 -1.0827 -0.8308
  910SOL    HW2 3323   0.270   4.952   2.725  0.1392 -0.1368  1.1247
  911SOL     OW 3324   2.505   1.034   0.882 -0.0173  0.2994  0.2287
  911SOL    HW1 3325   2.459   0.990   0.953  0.7450  0.2095  0.6740
  911SOL    HW2 3326   2.515   1.124   0.912  1.6271 -0.0719  0.9239
  912SOL     OW 3327   2.019   3.607   0.565  0.3901  0.1249  0.3137
  912SOL    HW1 3328   1.973   3.574   0.488 -0.6377  0.1432  0.9060
  912SOL    HW2 3329   1.997   3.700   0.569 -3.4959 -0.6507  3.1771
  913SOL     OW 3330   1.311   5.172   0.528  0.2692 -0.1360 -0.0533
  913SOL    HW1 3331   1.312   5.262   0.494  2.1536 -0.2910 -0.5507
  913SOL    HW2 3332   1.319   5.183   0.623 -0.7080  0.2258 -0.0001
  914SOL     OW 3333   1.405   3.323   2.985 -0.0469  0.5245  0.1645
  914SOL    HW1 3334   1.407   3.360   2.896  0.0191  0.3705  0.1006
  914SOL    HW2 3335   1.378   3.232   2.972  2.4104 -0.2582  0.0214
  915SOL     OW 3336   3.052   0.588   1.649  0.2840 -0.4509 -0.2396
  915SOL    HW1 3337   3.016   0.531   1.717  2.3463 -1.6959 -0.1144
  915SOL    HW2 3338   2.983   0.594   1.584 -0.5827 -1.7955  0.5082
  916SOL     OW 3339   4.944   0.208   2.681  0.5346 -0.1898  0.2205
  916SOL    HW1 3340   4.907   0.262   2.611  0.8903 -0.1379  0.0699
  916SOL    HW2 3341   5.026   0.251   2.703  0.3198 -0.0856  0.8235
  917SOL     OW 3342   5.571   3.542   3.322 -0.4225  0.1887  0.5170
  917SOL    HW1 3343   5.648   3.585   3.360 -1.2988  1.4077  0.9998
  917SOL    HW2 3344   5.606   3.483   3.256  1.0426 -0.6202  1.9583
  918SOL     OW 3345   2.512   2.097   2.692 -0.0103  0.3656  0.4266
  918SOL    HW1 3346   2.493   2.152   2.616 -2.7516 -0.8697  0.0998
  918SOL    HW2 3347   2.444   2.121   2.756  2.3522  1.5407  2.6784
  919SOL     OW 3348   1.415   1.487   0.155  0.1724  0.4293  0.1296
  919SOL    HW1 3349   1.380   1.400   0.134 -0.1480  0.9479 -1.6722
  919SOL    HW2 3350   1.509   1.478   0.145  0.5821 -0.5863  3.5396
  920SOL     OW 3351   3.358   2.784   0.081  0.0624  0.0699  0.5903
  920SOL    HW1 3352   3.308   2.702   0.080  0.9409 -0.4980 -1.0058
  920SOL    HW2 3353   3.396   2.788   0.169  0.4365 -1.5286  0.5300
  921SOL     OW 3354   6.657   5.143   0.827  0.0902  0.6879 -0.0743
  921SOL    HW1 3355   6.582   5.201   0.822  0.5933  1.3318 -0.3244
  921SOL    HW2 3356   6.622   5.056   0.810 -0.6011  0.9761 -0.1307
  922SOL     OW 3357   5.210   1.661   1.118 -0.5704 -0.2728 -0.5971
  922SOL    HW1 3358   5.210   1.695   1.028 -0.8037  1.1225 -0.0963
  922SOL    HW2 3359   5.179   1.571   1.109  0.7202 -0.6165 -2.0675
  923SOL     OW 3360   6.089   0.416   0.105 -0.3446 -0.3083 -0.3388
  923SOL    HW1 3361   6.081   0.362   0.184  0.0338 -0.1625 -0.2014
  923SOL    HW2 3362   5.999   0.443   0.086 -0.2631  1.0431  1.0091
  924SOL     OW 3363   5.184   0.015   1.605 -0.4127  0.3403  0.0232
  924SOL    HW1 3364   5.256   0.069   1.570  0.0676  0.0310  0.5136
  924SOL    HW2 3365   5.197   0.017   1.700  1.5456 -3.2064 -0.0234
  925SOL     OW 3366   3.415   0.911   1.137 -0.1208 -0.2907 -0.4145
  925SOL    HW1 3367   3.466   0.992   1.134 -0.7303  0.1032 -0.2909
  925SOL    HW2 3368   3.473   0.847   1.177 -0.1978  0.5114  1.0650
  926SOL     OW 3369   1.642   5.122   1.973  0.0418  0.1713  0.1304
  926SOL    HW1 3370   1.573   5.134   2.038 -0.0034 -0.9097  0.3011
  926SOL    HW2 3371   1.612   5.048   1.920  1.1530 -0.4427  0.3360
  927SOL     OW 3372   0.557   4.219   0.105  0.0168  0.1999  0.0241
  927SOL    HW1 3373   0.594   4.303   0.132  1.5450  0.0236 -1.3905
  927SOL    HW2 3374   0.462   4.232   0.113  0.2513  1.7130  0.7950
  928SOL     OW 3375   2.165   2.015   0.573 -0.1214 -0.0426  0.4988
  928SOL    HW1 3376   2.214   2.091   0.605  0.2208 -0.4810  1.0371
  928SOL    HW2 3377   2.203   1.940   0.620 -0.7614 -0.4925  0.3195
  929SOL     OW 3378   2.755   3.419   0.834 -0.2746  0.1886  0.0834
  929SOL    HW1 3379   2.748   3.327   0.808 -0.7240 -0.0904  1.1416
  929SOL    HW2 3380   2.673   3.437   0.879  0.5834  0.5676  1.5342
  930SOL     OW 3381   4.198   0.452   3.088 -0.0665 -0.8710 -0.6085
  930SOL    HW1 3382   4.213   0.511   3.162  0.8513 -1.3521 -0.3970
  930SOL    HW2 3383   4.111   0.476   3.056  0.6538  1.2842 -1.1405
  931SOL     OW 3384   1.084   2.021   1.556 -0.5826  0.2030  0.7123
  931SOL    HW1 3385   1.105   1.930   1.536  1.9241  0.9287 -0.3370
  931SOL    HW2 3386   1.110   2.031   1.648 -0.4348 -0.0355  0.6993
  932SOL     OW 3387   0.454   1.431   1.800  0.5917  0.8046  0.3168
  932SOL    HW1 3388   0.373   1.443   1.850 -0.0668 -2.1659  0.1553
  932SOL    HW2 3389   0.523   1.430   1.866  0.1908  0.8272  0.7399
  933SOL     OW 3390   6.062   4.399   0.869  0.1500  0.2671  0.1314
  933SOL    HW1 3391   6.146   4.353   0.870  0.5065  0.9087  1.0762
  933SOL    HW2 3392   6.085   4.491   0.881 -0.7988  0.2269  2.8162
  934SOL     OW 3393   3.676   3.167   1.586  0.1592 -0.2203  0.7812
  934SOL    HW1 3394   3.696   3.261   1.583 -1.0990  0.0487 -0.0582
  934SOL    HW2 3395   3.582   3.162   1.569  0.1174 -1.6131  1.2958
  935SOL     OW 3396   0.974   5.329   0.974 -0.0272 -0.5295  0.0710
  935SOL    HW1 3397   0.924   5.263   1.023 -0.4203 -0.7786 -0.6608
  935SOL    HW2 3398   0.928   5.411   0.991 -0.0461 -0.5803  0.2764
  936SOL     OW 3399   7.224   3.572   2.741 -0.1055 -0.0746  0.1898
  936SOL    HW1 3400   7.209   3.530   2.826  0.6552  0.6073  0.6801
  936SOL    HW2 3401   7.274   3.507   2.691  0.2353 -0.1323  0.5956
  937SOL     OW 3402   6.833   5.082   2.001 -1.0085 -0.5486  0.4096
  937SOL    HW1 3403   6.829   4.989   2.025 -1.8637 -1.0571 -1.5289
  937SOL    HW2 3404   6.839   5.128   2.085  1.3114 -2.3880  1.3819
  938SOL     OW 3405   3.101   5.057   2.794 -0.1744 -0.2847  0.6562
  938SOL    HW1 3406   3.023   5.075   2.846 -0.6663  3.5569 -1.0941
  938SOL    HW2 3407   3.170   5.111   2.833  0.7398 -1.0664  0.1740
  939SOL     OW 3408   4.164   2.709   2.836  0.3475  0.4896 -0.2008
  939SOL    HW1 3409   4.101   2.740   2.901 -0.8230 -0.1700 -0.9668
  939SOL    HW2 3410   4.170   2.779   2.772  0.9830  0.8640  0.2650
  940SOL     OW 3411   0.017   1.450   2.763  0.5415  0.1536  0.0063
  940SOL    HW1 3412  -0.065   1.412   2.731  0.5327  0.3482 -0.2091
  940SOL    HW2 3413  -0.007   1.489   2.847  0.0074  1.6716 -0.8099
  941SOL     OW 3414   0.577   3.057   1.935 -0.2184  0.0091 -0.4967
  941SOL    HW1 3415   0.673   3.060   1.930 -0.2557  1.5522 -1.0319
  941SOL    HW2 3416   0.557   2.968   1.962  1.4173 -0.0249  0.7894
  942SOL     OW 3417   4.569   4.498   0.929  0.3884  0.1500 -0.0346
  942SOL    HW1 3418   4.585   4.592   0.935  0.0368  0.2974 -1.1216
  942SOL    HW2 3419   4.561   4.481   0.835 -0.7726 -0.7611  0.2015
  943SOL     OW 3420   7.278   4.885   3.216 -0.0537 -0.5796 -0.3121
  943SOL    HW1 3421   7.359   4.860   3.171  0.8413  1.0723  0.2855
  943SOL    HW2 3422   7.280   4.981   3.215 -0.5140 -0.4733  2.3099
  944SOL     OW 3423   0.743   2.020   1.887 -0.1906 -0.0846  0.1698
  944SOL    HW1 3424   0.754   1.925   1.891  0.3496 -0.0504 -0.3852
  944SOL    HW2 3425   0.651   2.033   1.866 -0.2408 -0.4865  0.1350
  945SOL     OW 3426   6.010   5.152   1.419 -0.2316  0.6050  0.1180
  945SOL    HW1 3427   5.930   5.100   1.416  2.2842 -3.8493  1.4214
  945SOL    HW2 3428   6.014   5.183   1.510 -0.5152  0.9194  0.0241
  946SOL     OW 3429   7.098   2.357   1.652  0.1122  0.7947 -0.4885
  946SOL    HW1 3430   7.047   2.320   1.723  0.7478  1.1253  0.1512
  946SOL    HW2 3431   7.136   2.280   1.608 -1.4998  0.5009 -1.4425
  947SOL     OW 3432   7.192   3.879   2.842 -0.2442 -0.3328  0.1458
  947SOL    HW1 3433   7.254   3.811   2.815 -0.6969 -0.9103  0.5098
  947SOL    HW2 3434   7.188   3.939   2.768 -0.2520 -1.0100 -0.4128
  948SOL     OW 3435   0.080   0.848   2.186  0.2672 -0.9289 -0.4328
  948SOL    HW1 3436   0.011   0.837   2.251 -0.6338  0.3699 -1.1342
  948SOL    HW2 3437   0.126   0.764   2.186 -0.3631 -1.3122  1.1123
  949SOL     OW 3438   4.968   2.895   2.638  0.1964 -0.0378  0.4953
  949SOL    HW1 3439   4.922   2.844   2.571  0.0603 -3.7428  3.1242
  949SOL    HW2 3440   5.058   2.898   2.608  0.0515 -1.2300 -0.1119
  950SOL     OW 3441   6.151   1.788   2.594 -0.1829  0.3716 -0.4419
  950SOL    HW1 3442   6.062   1.791   2.629  0.2534  2.8475  0.6588
  950SOL    HW2 3443   6.139   1.786   2.499 -1.4584  1.5314 -0.3447
  951SOL     OW 3444   5.618   0.606   0.232  0.0338 -0.3387  0.2515
  951SOL    HW1 3445   5.531   0.634   0.260  0.6881  0.6554  1.3514
  951SOL    HW2 3446   5.643   0.538   0.294  0.4314  0.0699  0.5495
  952SOL     OW 3447   2.871   0.099   2.461  0.2461  0.1171  0.2527
  952SOL    HW1 3448   2.905   0.116   2.373  0.5195  1.1247  0.5362
  952SOL    HW2 3449   2.838   0.010   2.457  1.1445 -0.2019 -0.5942
  953SOL     OW 3450   6.832   3.618   0.161  0.0286 -0.2874  0.5641
  953SOL    HW1 3451   6.866   3.649   0.077  1.1230  0.3466  1.2188
  953SOL    HW2 3452   6.902   3.564   0.196 -1.1671 -2.1580  0.2326
  954SOL     OW 3453   5.486   5.177   3.064  0.3521  0.4562 -0.3401
  954SOL    HW1 3454   5.425   5.248   3.045  1.2356  0.9827 -1.3431
  954SOL    HW2 3455   5.570   5.221   3.080  1.0053 -0.3527 -1.3510
  955SOL     OW 3456   4.126   3.082   3.350 -0.1113 -0.6162  0.1984
  955SOL    HW1 3457   4.125   3.071   3.446 -0.1481 -0.6180  0.1977
  955SOL    HW2 3458   4.051   3.138   3.332 -0.4270 -1.0634  0.1167
  956SOL     OW 3459   0.185   1.132   1.345  0.0099  0.0573 -0.4180
  956SOL    HW1 3460   0.278   1.111   1.335 -0.0028 -0.9944  1.3115
  956SOL    HW2 3461   0.141   1.047   1.347 -0.7776  0.4714  0.5826
  957SOL     OW 3462   2.163   0.477   0.936  0.1290 -0.0803  0.2464
  957SOL    HW1 3463   2.211   0.496   0.855  0.2427 -3.0667 -0.4903
  957SOL    HW2 3464   2.075   0.513   0.921 -0.8002 -3.0681 -2.5722
  958SOL     OW 3465   5.550   4.328   0.239  0.1364 -0.4478  0.7756
  958SOL    HW1 3466   5.627   4.379   0.266 -0.5874  0.8123  0.4970
  958SOL    HW2 3467   5.479   4.391   0.237 -0.7636 -1.4578  0.3047
  959SOL     OW 3468   0.059   1.197   1.661 -0.1729  0.1717  0.0466
  959SOL    HW1 3469   0.079   1.283   1.698  0.9887 -0.6258  1.4143
  959SOL    HW2 3470   0.096   1.200   1.573  0.5599  0.8183  0.3582
  960SOL     OW 3471   2.661   0.823   3.408 -0.3366 -0.2421 -0.1138
  960SOL    HW1 3472   2.749   0.802   3.376 -0.1141 -1.3731  1.1535
  960SOL    HW2 3473   2.632   0.895   3.352  1.3112  0.0242 -0.6892
  961SOL     OW 3474   6.406   2.144   3.203 -0.1373  0.1558 -0.2081
  961SOL    HW1 3475   6.372   2.175   3.119 -2.0390  2.6780  1.3504
  961SOL    HW2 3476   6.498   2.168   3.202 -0.6034  2.0978 -0.8030
  962SOL     OW 3477   1.975   0.536   3.099 -0.8886  0.0105  0.2730
  962SOL    HW1 3478   2.026   0.603   3.144  0.0476  0.8852 -1.9511
  962SOL    HW2 3479   2.021   0.454   3.117 -0.2011  0.4251  0.4252
  963SOL     OW 3480   5.281   2.922   1.153 -0.3989 -0.4474  0.4127
  963SOL    HW1 3481   5.268   2.902   1.060 -0.8798  0.3147  0.3124
  963SOL    HW2 3482   5.280   3.017   1.158 -1.7001 -0.4916  1.3849
  964SOL     OW 3483   6.591   3.300   2.524 -0.1455 -0.2156  0.3190
  964SOL    HW1 3484   6.573   3.245   2.601 -0.1383  0.6598  0.9622
  964SOL    HW2 3485   6.586   3.389   2.557 -0.5019  0.1842 -0.7955
  965SOL     OW 3486   7.079   0.017   0.783  0.3434 -0.2412 -0.6382
  965SOL    HW1 3487   7.093   0.070   0.861 -1.8619 -1.1232  0.4469
  965SOL    HW2 3488   7.131   0.060   0.715  2.0666  0.7315  1.2100
  966SOL     OW 3489   2.380   5.141   1.493 -0.4374  0.3595  0.2866
  966SOL    HW1 3490   2.313   5.190   1.541 -1.3937  0.5271 -1.1381
  966SOL    HW2 3491   2.338   5.120   1.409  1.4510  0.8568 -0.8481
  967SOL     OW 3492   2.115   0.939   0.718  0.3447 -0.1195  0.0760
  967SOL    HW1 3493   2.064   0.917   0.640 -0.0431 -2.0110  0.8124
  967SOL    HW2 3494   2.205   0.917   0.695  0.2816 -0.3318  0.0255
  968SOL     OW 3495   6.079   2.674   2.778  0.3451  0.5053  0.3120
  968SOL    HW1 3496   6.156   2.616   2.773  0.8006  1.1411 -0.2739
  968SOL    HW2 3497   6.018   2.627   2.834 -0.2015 -1.6069 -1.8641
  969SOL     OW 3498   2.436   4.022   1.700 -0.0777  0.1844  0.4629
  969SOL    HW1 3499   2.349   3.986   1.718  0.4008 -0.8753  0.7551
  969SOL    HW2 3500   2.468   4.051   1.785  0.9155 -1.9230  0.8723
  970SOL     OW 3501   1.251   5.149   1.445 -0.0751  0.3891 -0.2948
  970SOL    HW1 3502   1.235   5.061   1.409 -1.0810  0.8597 -1.0289
  970SOL    HW2 3503   1.170   5.171   1.490 -0.9582  2.0838 -2.5325
  971SOL     OW 3504   2.417   4.260   3.333  0.2767 -0.6369  0.2343
  971SOL    HW1 3505   2.368   4.209   3.269  1.0129 -1.0694  0.0003
  971SOL    HW2 3506   2.462   4.328   3.282 -0.2130 -0.1295  0.4675
  972SOL     OW 3507   6.398   0.132   0.678 -0.1761 -0.1099 -0.3893
  972SOL    HW1 3508   6.395   0.218   0.721  1.3748 -0.5395  0.7012
  972SOL    HW2 3509   6.484   0.130   0.636  0.4219 -1.6438  0.8177
  973SOL     OW 3510   0.267   4.112   0.936 -0.1276  0.2028  0.3632
  973SOL    HW1 3511   0.252   4.053   1.010 -1.5132  2.6443  2.1622
  973SOL    HW2 3512   0.339   4.071   0.888  0.5754 -1.7168  2.8107
  974SOL     OW 3513   2.268   0.219   0.085  0.2410  0.9601 -0.0597
  974SOL    HW1 3514   2.344   0.272   0.064  0.6787  1.0920  1.6952
  974SOL    HW2 3515   2.237   0.253   0.170  0.1553 -1.1408  0.8196
  975SOL     OW 3516   7.104   5.019   1.547 -0.0891  0.0662 -0.1581
  975SOL    HW1 3517   7.099   5.109   1.513  0.7734 -0.0902 -0.7236
  975SOL    HW2 3518   7.183   5.019   1.601 -0.3042 -0.2535  0.1553
  976SOL     OW 3519   0.908   0.074   1.955  0.2135 -0.3485  0.1799
  976SOL    HW1 3520   0.942   0.123   2.030 -0.7378 -1.2016  1.1853
  976SOL    HW2 3521   0.985   0.031   1.918  0.3525 -2.0514  2.2709
  977SOL     OW 3522   4.257   0.204   0.642  0.1902  0.3376  0.2109
  977SOL    HW1 3523   4.214   0.159   0.569  0.0565  0.7556  0.0296
  977SOL    HW2 3524   4.275   0.291   0.609 -1.6808  1.2167  1.3120
  978SOL     OW 3525   4.680   0.992   0.583  0.3987 -0.6756  0.2469
  978SOL    HW1 3526   4.643   0.920   0.635 -1.8535 -0.1460 -0.5192
  978SOL    HW2 3527   4.761   1.015   0.628 -0.8606 -1.0157  2.8545
  979SOL     OW 3528   2.626   3.244   0.466 -0.1643 -0.2614 -0.1152
  979SOL    HW1 3529   2.717   3.255   0.437 -0.2377 -0.1981 -0.3201
  979SOL    HW2 3530   2.633   3.228   0.560 -0.0381  1.1782  0.1399
  980SOL     OW 3531   1.905   0.348   0.264  0.9927 -0.1377  0.1896
  980SOL    HW1 3532   1.870   0.271   0.220  0.7903 -0.2402  0.5268
  980SOL    HW2 3533   1.835   0.376   0.324  0.3697  1.3280 -1.1570
  981SOL     OW 3534   6.366   0.465   1.533  0.1182 -0.6313  0.5211
  981SOL    HW1 3535   6.401   0.470   1.622  1.3360  1.3681 -0.0133
  981SOL    HW2 3536   6.333   0.553   1.516 -0.7858 -1.1891 -0.7687
  982SOL     OW 3537   5.199   0.705   1.673  0.1817 -0.0215  0.2298
  982SOL    HW1 3538   5.170   0.640   1.609  0.8299 -0.9058  0.8014
  982SOL    HW2 3539   5.154   0.680   1.754  1.9352 -1.0280  0.9645
  983SOL     OW 3540   6.274   1.557   1.374  0.3062  0.7676 -0.1783
  983SOL    HW1 3541   6.180   1.537   1.377  0.3880  0.1528 -1.3300
  983SOL    HW2 3542   6.313   1.491   1.431  0.3319 -1.0693 -2.1799
  984SOL     OW 3543   6.157   4.297   2.718  0.1647 -0.9501  0.8617
  984SOL    HW1 3544   6.210   4.269   2.643 -0.7939 -0.7795  0.1003
  984SOL    HW2 3545   6.201   4.376   2.750 -0.5110  0.1662 -0.8002
  985SOL     OW 3546   6.033   0.170   2.982  0.4002 -0.3654  0.2232
  985SOL    HW1 3547   6.120   0.199   2.955 -0.5112  3.0879  0.5617
  985SOL    HW2 3548   5.991   0.142   2.900  0.7087  1.2556 -0.5310
  986SOL     OW 3549   3.716   4.330   3.099 -0.1423  0.0069 -0.6872
  986SOL    HW1 3550   3.691   4.420   3.119 -0.2452  0.0840 -1.1434
  986SOL    HW2 3551   3.662   4.276   3.157  0.3572  0.2551  0.0216
  987SOL     OW 3552   6.315   3.393   1.597  0.0151 -0.0054  0.2334
  987SOL    HW1 3553   6.321   3.427   1.686 -1.2193 -0.6447  0.5905
  987SOL    HW2 3554   6.227   3.418   1.568  0.4416  0.2790 -0.8452
  988SOL     OW 3555   3.022   2.439   0.741  0.5784  0.0117  0.1286
  988SOL    HW1 3556   3.067   2.450   0.825  0.8104 -0.2069  0.0337
  988SOL    HW2 3557   2.975   2.357   0.750  1.6218 -0.6666 -0.4085
  989SOL     OW 3558   7.337   0.507   2.168  0.2556  0.2169 -0.5833
  989SOL    HW1 3559   7.405   0.468   2.223  0.1650 -0.7958 -1.1580
  989SOL    HW2 3560   7.359   0.476   2.079 -0.8469  0.0200 -0.7990
  990SOL     OW 3561   6.635   4.943   1.699  0.0588 -0.3863  0.6345
  990SOL    HW1 3562   6.725   4.977   1.695 -0.8020  1.9903 -0.2467
  990SOL    HW2 3563   6.634   4.887   1.776  2.3568 -0.6596  0.5299
  991SOL     OW 3564   1.789   0.139   3.069 -1.1187 -0.3574 -0.0981
  991SOL    HW1 3565   1.756   0.134   2.979 -1.4036  2.3684 -0.2420
  991SOL    HW2 3566   1.883   0.147   3.060 -1.2013  0.5822 -0.2239
  992SOL     OW 3567   3.752   1.378   0.706 -0.3423 -0.1927 -0.2220
  992SOL    HW1 3568   3.779   1.395   0.796 -0.3999  0.8978 -0.3923
  992SOL    HW2 3569   3.711   1.460   0.678  1.5442  0.2515 -1.9120
  993SOL     OW 3570   5.359   5.110   1.574 -0.1061 -0.0220  0.4078
  993SOL    HW1 3571   5.413   5.109   1.494  0.3378 -0.2920  0.7047
  993SOL    HW2 3572   5.299   5.183   1.561  0.3576  0.3116  0.0812
  994SOL     OW 3573   1.632   5.287   3.175  0.3679 -0.0301 -0.1993
  994SOL    HW1 3574   1.695   5.354   3.148  1.3912 -0.2077  1.5500
  994SOL    HW2 3575   1.673   5.204   3.150  1.5323 -0.2213  2.0838
  995SOL     OW 3576   1.289   2.678   0.836  0.1419  0.1440 -0.2834
  995SOL    HW1 3577   1.227   2.712   0.771  0.6099 -1.0280 -1.3766
  995SOL    HW2 3578   1.283   2.740   0.909 -2.0630  0.2386 -0.4801
  996SOL     OW 3579   3.014   1.818   2.560  0.5333 -0.1811 -0.3755
  996SOL    HW1 3580   3.082   1.773   2.510  0.0361 -0.4827 -0.7880
  996SOL    HW2 3581   3.000   1.762   2.637  1.2340  0.2373  0.0699
  997SOL     OW 3582   6.750   2.740   0.741 -1.1391 -0.3475  0.0689
  997SOL    HW1 3583   6.723   2.651   0.762  0.0964 -0.7709 -0.0373
  997SOL    HW2 3584   6.804   2.730   0.662  1.1039  0.1236  1.4392
  998SOL     OW 3585   1.579   3.737   3.116  0.5653 -0.4532 -0.3663
  998SOL    HW1 3586   1.664   3.772   3.141  0.3490  0.2928 -0.6382
  998SOL    HW2 3587   1.523   3.815   3.106  0.0056 -0.8950 -0.7390
  999SOL     OW 3588   1.265   0.363   2.796 -0.1079 -0.6206 -0.0708
  999SOL    HW1 3589   1.303   0.390   2.879  1.3613 -0.7194 -0.6712
  999SOL    HW2 3590   1.183   0.413   2.789 -0.3429 -0.7476  1.4822
 1000SOL     OW 3591   0.081   4.131   2.555  0.2522  0.0465 -0.0662
 1000SOL    HW1 3592   0.121   4.056   2.600 -0.2241 -0.2432 -0.1078
 1000SOL    HW2 3593   0.150   4.197   2.551  0.1865  0.2411  1.4804
 1001SOL     OW 3594   4.076   3.031   1.232  0.1148  0.5417  0.5370
 1001SOL    HW1 3595   4.029   3.012   1.313  0.2439 -1.4870  0.1906
 1001SOL    HW2 3596   4.009   3.068   1.174 -0.5290 -0.1302  0.8341
 1002SOL     OW 3597   0.408   1.755   2.054  0.2586 -0.8930 -0.8705
 1002SOL    HW1 3598   0.332   1.771   2.109  0.4820 -1.9811 -0.2098
 1002SOL    HW2 3599   0.475   1.724   2.115  1.5458  0.8822 -1.2893
 1003SOL     OW 3600   1.008   2.379   2.642 -0.4358 -0.2287 -0.2039
 1003SOL    HW1 3601   1.052   2.423   2.569 -0.0875 -1.3599 -0.7071
 1003SOL    HW2 3602   1.049   2.293   2.645  0.6691  0.3087  2.3494
 1004SOL     OW 3603   4.080   2.817   0.621 -0.4753  0.0401  0.0717
 1004SOL    HW1 3604   4.165   2.834   0.663 -0.2717 -0.5881 -0.0754
 1004SOL    HW2 3605   4.072   2.886   0.556 -1.0682  1.4077  1.5118
 1005SOL     OW 3606   1.424   4.746   2.651 -0.2822 -0.0435  0.1199
 1005SOL    HW1 3607   1.384   4.660   2.640 -2.1572  0.7442  0.4068
 1005SOL    HW2 3608   1.515   4.727   2.674 -0.1424 -1.9100 -1.6457
 1006SOL     OW 3609   1.177   1.383   2.344 -0.0797  0.3856 -0.1260
 1006SOL    HW1 3610   1.242   1.337   2.396  0.3672  1.8648  0.6908
 1006SOL    HW2 3611   1.226   1.414   2.267 -0.3738 -0.4677 -0.6648
 1007SOL     OW 3612   1.652   3.200   1.437 -0.2300 -0.2453  0.1974
 1007SOL    HW1 3613   1.627   3.176   1.526  0.1047 -1.5193 -0.0406
 1007SOL    HW2 3614   1.608   3.136   1.381 -1.1092  1.0409 -0.6302
 1008SOL     OW 3615   0.407   4.633   0.255  0.2450 -0.2545  0.2392
 1008SOL    HW1 3616   0.433   4.714   0.211 -0.4134 -0.5899 -0.8131
 1008SOL    HW2 3617   0.413   4.653   0.348 -1.8386  1.6788  0.0371
 1009SOL     OW 3618   1.419   2.434   2.586 -0.3630 -0.0305  0.0613
 1009SOL    HW1 3619   1.338   2.458   2.541 -0.6490 -0.2038  0.4750
 1009SOL    HW2 3620   1.471   2.388   2.520 -0.7071 -0.1358 -0.1376
 1010SOL     OW 3621   1.493   3.999   0.201 -0.2561  0.3407 -0.0373
 1010SOL    HW1 3622   1.450   4.084   0.201 -0.7722  0.0884 -0.8737
 1010SOL    HW2 3623   1.423   3.936   0.220 -0.2432 -0.0588 -1.2617
 1011SOL     OW 3624   0.846   2.882   0.523  0.3014  0.0772  0.0880
 1011SOL    HW1 3625   0.755   2.858   0.535  0.2853  0.1849  0.1820
 1011SOL    HW2 3626   0.857   2.892   0.429  0.0970  0.5366  0.1105
 1012SOL     OW 3627   7.258   5.081   1.869  0.1332  0.6249 -0.4390
 1012SOL    HW1 3628   7.344   5.122   1.881  0.3577  0.2088 -0.6305
 1012SOL    HW2 3629   7.275   5.002   1.818 -0.3240  0.3837 -0.2304
 1013SOL     OW 3630   1.197   3.079   2.678 -0.7787 -0.4505  0.2078
 1013SOL    HW1 3631   1.204   3.000   2.625 -1.1658  0.7561 -1.7506
 1013SOL    HW2 3632   1.265   3.137   2.642 -0.2384 -0.0205  1.8660
 1014SOL     OW 3633   7.071   1.527   3.280  0.5975  0.1607  0.1769
 1014SOL    HW1 3634   6.998   1.590   3.286  0.7306  0.5603 -1.6124
 1014SOL    HW2 3635   7.046   1.455   3.337 -0.6201  0.8600  0.5578
 1015SOL     OW 3636   4.433   4.423   1.141  0.3626 -0.4848 -0.3424
 1015SOL    HW1 3637   4.361   4.360   1.143 -0.4522  0.4377  1.4336
 1015SOL    HW2 3638   4.449   4.438   1.048 -1.0979 -1.4098 -0.7742
 1016SOL     OW 3639   0.277   3.447   2.163 -0.4608  0.3527 -0.5518
 1016SOL    HW1 3640   0.212   3.495   2.112 -1.9282  0.1581  1.0506
 1016SOL    HW2 3641   0.287   3.497   2.244  1.1457  0.1813 -0.6023
 1017SOL     OW 3642   6.658   3.644   0.386  0.2888 -0.5896 -0.3577
 1017SOL    HW1 3643   6.587   3.707   0.372  1.5963  1.1530  0.5158
 1017SOL    HW2 3644   6.717   3.657   0.312  0.1330 -1.4625 -0.6507
 1018SOL     OW 3645   1.991   3.106   1.747 -0.0861 -0.1263  0.2325
 1018SOL    HW1 3646   2.014   3.176   1.808  2.0259 -1.0657  0.6051
 1018SOL    HW2 3647   1.966   3.032   1.803 -2.8112  0.4075 -0.1598
 1019SOL     OW 3648   7.157   1.062   3.006 -0.4090  0.2985  0.7167
 1019SOL    HW1 3649   7.180   0.983   2.957 -1.8459 -0.8278  1.7623
 1019SOL    HW2 3650   7.236   1.116   3.004  0.8696 -1.5064  0.6237
 1020SOL     OW 3651   6.073   3.933   1.460  0.0882  0.3804  0.3274
 1020SOL    HW1 3652   6.024   4.011   1.434  0.0163  0.4260  0.5987
 1020SOL    HW2 3653   6.101   3.951   1.550  0.3115  0.2119  0.2925
 1021SOL     OW 3654   2.170   5.163   1.655  0.3193 -0.1181 -0.1409
 1021SOL    HW1 3655   2.092   5.121   1.619 -0.2634  0.4419  0.4455
 1021SOL    HW2 3656   2.136   5.240   1.702  1.3022  0.6641 -0.6759
 1022SOL     OW 3657   3.156   4.796   2.336 -0.1286 -0.5339 -0.6102
 1022SOL    HW1 3658   3.077   4.840   2.368  0.7440  2.8002 -2.5421
 1022SOL    HW2 3659   3.125   4.745   2.261 -0.7954 -1.2503  0.1329
 1023SOL     OW 3660   0.393   1.962   1.509 -0.5020  0.2542 -0.2633
 1023SOL    HW1 3661   0.445   1.975   1.430  0.8515  0.4349  0.6242
 1023SOL    HW2 3662   0.408   1.870   1.533 -1.1703  0.1073 -0.3883
 1024SOL     OW 3663   5.882   4.119   3.435 -0.0901  0.2631 -0.0887
 1024SOL    HW1 3664   5.916   4.160   3.514 -3.3046  0.9792  1.0873
 1024SOL    HW2 3665   5.898   4.183   3.366  0.6814  0.6503  0.4350
 1025SOL     OW 3666   2.818   2.580   0.225 -0.1483 -0.0890 -0.1888
 1025SOL    HW1 3667   2.881   2.529   0.175  1.6924  1.2570  0.6460
 1025SOL    HW2 3668   2.749   2.602   0.161  0.9044 -0.4533 -1.4915
 1026SOL     OW 3669   1.502   1.415   1.038  0.0982 -0.6001  0.0944
 1026SOL    HW1 3670   1.475   1.323   1.043  0.8134 -0.7843  0.6643
 1026SOL    HW2 3671   1.479   1.441   0.948 -1.1511 -0.9935  0.2757
 1027SOL     OW 3672   0.114   3.757   0.820 -0.1555 -0.1340  0.1215
 1027SOL    HW1 3673   0.134   3.830   0.762  1.9102 -2.4299 -2.3505
 1027SOL    HW2 3674   0.185   3.757   0.883 -0.1929  0.0235  0.1643
 1028SOL     OW 3675   3.619   2.166   0.990  0.1213 -0.4403 -0.4538
 1028SOL    HW1 3676   3.679   2.216   1.045  0.2086 -0.2927 -0.6810
 1028SOL    HW2 3677   3.597   2.226   0.918 -1.6008  0.1313  0.4748
 1029SOL     OW 3678   2.092   2.797   0.227 -0.2805 -0.4973 -0.4467
 1029SOL    HW1 3679   2.057   2.741   0.296  0.2458 -1.1175 -0.6735
 1029SOL    HW2 3680   2.039   2.777   0.150 -2.4839  1.9173  0.2828
 1030SOL     OW 3681   5.020   3.955   1.152  0.6366 -0.0538 -0.2028
 1030SOL    HW1 3682   4.964   4.006   1.210  1.8965  1.5280 -0.2933
 1030SOL    HW2 3683   5.106   3.957   1.194  1.4956  0.7902 -1.8682
 1031SOL     OW 3684   0.994   2.025   3.464 -0.0107 -0.1831  0.5331
 1031SOL    HW1 3685   0.933   2.079   3.514  0.0302  2.1594 -1.7219
 1031SOL    HW2 3686   0.990   1.939   3.506 -4.7736 -0.1741  0.6474
 1032SOL     OW 3687   4.596   5.280   2.119  0.3684  0.1273  0.0371
 1032SOL    HW1 3688   4.691   5.275   2.111  0.5735  0.2354  1.9560
 1032SOL    HW2 3689   4.570   5.346   2.054  1.5403 -0.2083 -0.7972
 1033SOL     OW 3690   4.471   4.037   2.866 -0.5693 -0.1258 -0.0684
 1033SOL    HW1 3691   4.557   3.999   2.848 -1.0568 -1.3285  0.0414
 1033SOL    HW2 3692   4.449   4.005   2.953 -0.9028  0.6343  0.1376
 1034SOL     OW 3693   2.391   4.443   2.678  0.1144  0.0101  0.5983
 1034SOL    HW1 3694   2.385   4.348   2.691  0.0665 -0.1697 -0.6421
 1034SOL    HW2 3695   2.395   4.479   2.767  1.5073 -1.2394  1.0965
 1035SOL     OW 3696   7.102   2.098   2.723  0.5603  0.4322 -0.2437
 1035SOL    HW1 3697   7.113   2.166   2.657 -1.8756  1.3623  0.2114
 1035SOL    HW2 3698   7.026   2.048   2.694  1.5278 -1.3514  0.1056
 1036SOL     OW 3699   2.576   0.749   2.191  0.1928 -0.0883  0.1685
 1036SOL    HW1 3700   2.560   0.712   2.278 -0.7714  1.4240  0.6769
 1036SOL    HW2 3701   2.600   0.673   2.137  1.5093 -0.9702  1.8792
 1037SOL     OW 3702   0.090   0.659   1.503  0.1858  0.2416 -0.1829
 1037SOL    HW1 3703   0.062   0.640   1.593  0.3008  3.0110  0.5481
 1037SOL    HW2 3704   0.085   0.575   1.458  0.3840 -1.3229  2.4687
 1038SOL     OW 3705   2.615   5.111   2.268  0.2700 -0.3695  0.3758
 1038SOL    HW1 3706   2.681   5.088   2.203 -2.3927 -2.7203 -1.7696
 1038SOL    HW2 3707   2.552   5.165   2.221 -0.0353  0.8062  2.0235
 1039SOL     OW 3708   4.071   4.178   0.480  0.3847  0.2992  0.1704
 1039SOL    HW1 3709   4.007   4.108   0.492  0.8683  0.1349  1.9866
 1039SOL    HW2 3710   4.029   4.256   0.515  0.6307  0.5029  0.0184
 1040SOL     OW 3711   1.789   3.852   1.198  0.5097 -0.4713  0.5136
 1040SOL    HW1 3712   1.747   3.857   1.284  1.6103  0.5748  1.0169
 1040SOL    HW2 3713   1.750   3.775   1.157 -1.6653  0.2609  1.0593
 1041SOL     OW 3714   4.089   4.703   3.025 -0.7281 -0.3496  0.3294
 1041SOL    HW1 3715   4.126   4.741   2.945 -0.7986 -1.1621 -0.0967
 1041SOL    HW2 3716   4.060   4.779   3.076 -0.3954  0.1939 -0.2684
 1042SOL     OW 3717   3.347   3.616   0.274  0.3858  0.6997  0.1887
 1042SOL    HW1 3718   3.318   3.536   0.230  1.1518  0.6695 -0.2810
 1042SOL    HW2 3719   3.407   3.657   0.212 -0.6717  2.1121  0.0571
 1043SOL     OW 3720   0.435   1.094   1.280 -0.1352  0.0422  0.0959
 1043SOL    HW1 3721   0.506   1.090   1.344  1.3138 -2.2907 -1.4583
 1043SOL    HW2 3722   0.429   1.004   1.246 -0.6908  1.1408 -3.0998
 1044SOL     OW 3723   1.549   4.236   0.905 -0.2224  0.3991  0.2488
 1044SOL    HW1 3724   1.540   4.146   0.936  0.0318 -0.1181 -1.0992
 1044SOL    HW2 3725   1.515   4.235   0.815  1.0345  1.3163 -0.2895
 1045SOL     OW 3726   1.618   0.536   0.865 -0.4506  0.4838 -0.2496
 1045SOL    HW1 3727   1.657   0.462   0.913  0.4763  0.9436 -0.2882
 1045SOL    HW2 3728   1.687   0.567   0.807 -0.6078  1.8104  0.2359
 1046SOL     OW 3729   4.272   3.667   2.785 -0.0706 -0.3560  0.1911
 1046SOL    HW1 3730   4.242   3.576   2.788 -0.4498 -0.2969 -1.1546
 1046SOL    HW2 3731   4.365   3.663   2.804 -0.5137 -0.7496  2.5673
 1047SOL     OW 3732   5.256   4.764   2.300 -0.0155 -0.3551 -0.9505
 1047SOL    HW1 3733   5.207   4.799   2.226 -2.1081  0.1168  0.5637
 1047SOL    HW2 3734   5.201   4.694   2.334  0.4802 -0.0045  0.6455
 1048SOL     OW 3735   3.684   0.850   2.346 -0.4429  0.1119 -0.2623
 1048SOL    HW1 3736   3.632   0.842   2.266 -1.5683  1.1313  0.3177
 1048SOL    HW2 3737   3.749   0.917   2.326 -0.2407 -0.1654 -0.5474
 1049SOL     OW 3738   6.060   0.127   1.222  0.0605 -0.4709 -0.4337
 1049SOL    HW1 3739   6.128   0.157   1.283  0.8755 -0.3797 -1.3614
 1049SOL    HW2 3740   5.980   0.128   1.273  0.0733  2.8836 -0.2428
 1050SOL     OW 3741   4.760   1.967   0.249 -0.1423 -0.1878 -0.3191
 1050SOL    HW1 3742   4.770   1.911   0.173 -1.4195  0.0940 -0.7329
 1050SOL    HW2 3743   4.811   2.045   0.229  1.4138 -1.0461  0.1381
 1051SOL     OW 3744   5.396   4.564   0.278 -0.2144 -0.5194 -0.6555
 1051SOL    HW1 3745   5.365   4.629   0.216 -0.4212 -1.1602 -1.2378
 1051SOL    HW2 3746   5.363   4.594   0.363  0.1585  0.4150 -0.8298
 1052SOL     OW 3747   6.500   2.772   1.948  0.3064 -0.2513 -0.6039
 1052SOL    HW1 3748   6.552   2.742   1.873  1.8476 -0.3359  0.4479
 1052SOL    HW2 3749   6.518   2.866   1.954  0.0027 -0.2006 -0.4786
 1053SOL     OW 3750   3.625   0.343   2.046 -0.2769  0.1040 -0.3781
 1053SOL    HW1 3751   3.701   0.318   1.995  0.3895  0.6979  0.2998
 1053SOL    HW2 3752   3.641   0.305   2.133 -1.1178 -0.4135 -0.4348
 1054SOL     OW 3753   6.814   3.802   2.470  0.2803  0.0873 -0.0418
 1054SOL    HW1 3754   6.739   3.861   2.479 -0.1043 -0.2525 -0.9497
 1054SOL    HW2 3755   6.779   3.725   2.425  1.1222 -0.1807 -0.2491
 1055SOL     OW 3756   4.434   3.921   0.618  0.3044 -0.0575 -0.2543
 1055SOL    HW1 3757   4.375   3.869   0.562  0.8155  0.2039 -1.0487
 1055SOL    HW2 3758   4.470   3.857   0.679  0.6494 -0.5926 -0.9950
 1056SOL     OW 3759   6.093   2.926   2.976  0.1875  0.1534  0.2777
 1056SOL    HW1 3760   6.083   2.851   3.033 -0.8911 -0.8439 -1.1410
 1056SOL    HW2 3761   6.036   2.907   2.901 -0.1722  2.4087 -0.1042
 1057SOL     OW 3762   7.223   1.126   2.445  0.2211 -0.1193 -0.0497
 1057SOL    HW1 3763   7.268   1.086   2.371 -0.7898  1.7450 -1.7513
 1057SOL    HW2 3764   7.133   1.138   2.416  0.0803  1.7962  0.9906
 1058SOL     OW 3765   0.917   3.018   2.503 -0.3313  0.2660  0.0782
 1058SOL    HW1 3766   0.872   2.936   2.522 -0.3011  0.2513  0.0854
 1058SOL    HW2 3767   0.925   3.061   2.588 -0.4127  0.3097  0.0638
 1059SOL     OW 3768   0.602   3.878   1.238 -0.2501  0.5441 -0.1465
 1059SOL    HW1 3769   0.592   3.886   1.333 -0.3688  0.6465 -0.1667
 1059SOL    HW2 3770   0.537   3.812   1.213 -0.0664  0.3581 -0.1274
 1060SOL     OW 3771   6.795   1.732   0.474  0.0395  0.0250 -0.5753
 1060SOL    HW1 3772   6.736   1.779   0.416 -2.2079 -0.4728  1.1602
 1060SOL    HW2 3773   6.785   1.640   0.451  1.3840  0.0312 -1.2974
 1061SOL     OW 3774   0.760   4.492   2.982  0.4162  0.1991 -0.4127
 1061SOL    HW1 3775   0.699   4.424   3.009  0.2653  0.5088  0.0385
 1061SOL    HW2 3776   0.843   4.468   3.024  0.1967  0.6479  0.2920
 1062SOL     OW 3777   5.822   1.016   1.103  0.2583 -0.3455 -0.4722
 1062SOL    HW1 3778   5.849   0.939   1.152  1.5617 -0.0503 -0.6768
 1062SOL    HW2 3779   5.843   0.996   1.012  0.2584  0.1024 -0.5747
 1063SOL     OW 3780   7.322   3.993   1.156 -0.1336 -0.1472 -0.6365
 1063SOL    HW1 3781   7.254   3.936   1.122  0.0222  0.0255 -1.2543
 1063SOL    HW2 3782   7.283   4.034   1.233 -0.5118 -0.5012 -0.6332
 1064SOL     OW 3783   2.996   1.485   3.029 -0.0025  0.1145  0.2056
 1064SOL    HW1 3784   2.942   1.406   3.033  0.0437  0.1217  1.3151
 1064SOL    HW2 3785   3.085   1.454   3.042  0.0781  0.2834  0.0488
 1065SOL     OW 3786   6.712   5.342   3.411  0.1820  0.7064  0.3590
 1065SOL    HW1 3787   6.737   5.309   3.497 -0.2275 -0.9453 -0.1221
 1065SOL    HW2 3788   6.622   5.371   3.421 -0.5587 -1.3495  0.0441
 1066SOL     OW 3789   3.988   1.310   3.150  0.0566 -0.0270 -0.2032
 1066SOL    HW1 3790   3.927   1.305   3.224  0.6249  2.3473  0.5260
 1066SOL    HW2 3791   3.932   1.324   3.074 -0.4551 -0.9036  0.0021
 1067SOL     OW 3792   0.369   4.771   2.422  0.0923 -0.2632  0.7091
 1067SOL    HW1 3793   0.409   4.685   2.439  0.4656  0.1251  1.8574
 1067SOL    HW2 3794   0.345   4.803   2.508  0.2883  0.9611  0.3177
 1068SOL     OW 3795   1.219   5.316   1.239 -0.0720 -0.2327  0.0417
 1068SOL    HW1 3796   1.138   5.352   1.275 -0.1102 -0.5504  0.2821
 1068SOL    HW2 3797   1.254   5.262   1.309  0.3026 -0.1702 -0.0966
 1069SOL     OW 3798   5.878   0.770   2.355 -0.3805 -0.1654  0.6044
 1069SOL    HW1 3799   5.851   0.679   2.365 -0.5150 -0.2545 -0.4685
 1069SOL    HW2 3800   5.942   0.784   2.425 -0.6015 -0.9820  0.9846
 1070SOL     OW 3801   4.379   0.738   0.186 -0.3311 -0.4142 -0.1678
 1070SOL    HW1 3802   4.445   0.733   0.117  0.3481  0.7993  0.3459
 1070SOL    HW2 3803   4.322   0.810   0.159  0.6314  0.8865  1.0448
 1071SOL     OW 3804   7.244   4.038   3.153 -0.0315  0.5834  0.3447
 1071SOL    HW1 3805   7.177   4.037   3.221  0.4643 -2.1430  0.9067
 1071SOL    HW2 3806   7.194   4.044   3.071 -0.7661  1.4678  0.8377
 1072SOL     OW 3807   5.455   2.019   2.629  0.4069 -0.4794  0.2160
 1072SOL    HW1 3808   5.539   1.997   2.669  0.6486  0.3579  0.1900
 1072SOL    HW2 3809   5.474   2.095   2.574  0.1349 -1.7200 -1.6882
 1073SOL     OW 3810   6.958   3.562   3.393 -0.4858  0.8419 -0.0568
 1073SOL    HW1 3811   7.003   3.635   3.351  0.6855  0.3095  0.2197
 1073SOL    HW2 3812   7.027   3.497   3.409 -1.2256  0.2804  1.0168
 1074SOL     OW 3813   5.110   1.386   1.343 -0.0226  1.0009  0.5349
 1074SOL    HW1 3814   5.119   1.390   1.248 -0.5712  0.2443  0.4415
 1074SOL    HW2 3815   5.072   1.300   1.360  1.1535  0.6410  1.5302
 1075SOL     OW 3816   0.657   2.394   0.271 -0.1654  0.2398 -1.2747
 1075SOL    HW1 3817   0.630   2.308   0.301  2.3146 -0.1726  0.1216
 1075SOL    HW2 3818   0.576   2.444   0.262 -1.4762 -1.4107  0.5663
 1076SOL     OW 3819   2.447   2.287   2.491 -0.1085 -0.0035  0.2595
 1076SOL    HW1 3820   2.436   2.363   2.548 -0.7996 -0.6486  1.0213
 1076SOL    HW2 3821   2.492   2.320   2.414  2.2590  0.6161  1.8006
 1077SOL     OW 3822   0.336   0.719   3.217 -0.3026  0.3897  0.5885
 1077SOL    HW1 3823   0.387   0.654   3.266 -3.4912  0.9838  5.3089
 1077SOL    HW2 3824   0.259   0.671   3.188 -0.1425  0.9200 -0.7667
 1078SOL     OW 3825   1.911   5.005   1.879  0.0167  0.0925  0.2202
 1078SOL    HW1 3826   1.994   5.034   1.918  0.3296 -1.7664  1.0214
 1078SOL    HW2 3827   1.845   5.028   1.945  0.3425 -1.5115  1.1534
 1079SOL     OW 3828   1.334   5.159   0.801 -0.3622 -0.1630  0.2298
 1079SOL    HW1 3829   1.412   5.107   0.823  0.0227  0.4697  0.3693
 1079SOL    HW2 3830   1.324   5.219   0.875 -2.1462 -1.5343  1.2006
 1080SOL     OW 3831   0.929   1.733   1.870 -0.2038 -0.1607 -0.1598
 1080SOL    HW1 3832   0.993   1.781   1.921 -0.1094 -0.9778  0.5192
 1080SOL    HW2 3833   0.978   1.697   1.796  0.5908 -2.2694  1.2737
 1081SOL     OW 3834   0.255   5.234   3.262  0.9881 -0.4157 -0.2851
 1081SOL    HW1 3835   0.338   5.265   3.225  0.4292 -1.7158 -2.8898
 1081SOL    HW2 3836   0.200   5.218   3.185 -0.9642 -1.5966  1.2737
 1082SOL     OW 3837   6.453   3.673   1.928 -0.8701 -1.0558 -0.2667
 1082SOL    HW1 3838   6.373   3.714   1.958  0.5272  0.0792  2.1749
 1082SOL    HW2 3839   6.503   3.744   1.887  1.3427 -0.1335  3.5316
 1083SOL     OW 3840   5.447   1.015   2.624 -0.6004  0.3399 -0.2368
 1083SOL    HW1 3841   5.394   1.086   2.587 -2.1894 -0.1594  0.9650
 1083SOL    HW2 3842   5.414   0.936   2.582  0.3049  0.1688 -0.6454
 1084SOL     OW 3843   5.152   5.175   2.188  0.2394  0.4113 -0.0972
 1084SOL    HW1 3844   5.202   5.097   2.164  0.2520  0.6555 -0.8917
 1084SOL    HW2 3845   5.150   5.174   2.283  0.1565 -0.6133 -0.0974
 1085SOL     OW 3846   6.488   1.563   0.766 -0.1317 -0.0407  0.2229
 1085SOL    HW1 3847   6.481   1.636   0.826  6.0408  0.4715  0.9465
 1085SOL    HW2 3848   6.489   1.603   0.679 -1.0248  0.1215  0.2726
 1086SOL     OW 3849   1.511   2.859   0.722 -0.3221  0.1284  0.5629
 1086SOL    HW1 3850   1.606   2.862   0.722 -0.2787  2.0902 -1.8275
 1086SOL    HW2 3851   1.489   2.768   0.704  0.9772 -0.7147  2.7951
 1087SOL     OW 3852   1.588   4.396   3.240  0.1453 -0.3331  0.2485
 1087SOL    HW1 3853   1.613   4.323   3.297  0.2212 -0.5719 -0.0917
 1087SOL    HW2 3854   1.510   4.433   3.283 -0.7233 -1.4640 -0.2861
 1088SOL     OW 3855   0.651   0.332   3.297 -0.1835  0.3524 -0.4431
 1088SOL    HW1 3856   0.715   0.317   3.228  1.5681 -0.0906  1.2001
 1088SOL    HW2 3857   0.596   0.254   3.297 -0.0148  0.2361 -1.1318
 1089SOL     OW 3858   5.154   3.553   1.694  0.6576 -0.4041 -0.4471
 1089SOL    HW1 3859   5.091   3.578   1.762  0.9499 -0.3161 -0.2066
 1089SOL    HW2 3860   5.139   3.615   1.623 -0.3349 -1.1134 -0.8759
 1090SOL     OW 3861   0.925   0.943   3.468  0.2303 -0.1721 -0.1332
 1090SOL    HW1 3862   0.838   0.980   3.451  1.0577  1.5660 -0.8021
 1090SOL    HW2 3863   0.907   0.855   3.501 -1.7762  0.0764 -0.4155
 1091SOL     OW 3864   5.637   3.717   2.414  0.0640  0.3972 -0.4489
 1091SOL    HW1 3865   5.584   3.741   2.338  1.3954 -1.0524 -1.9300
 1091SOL    HW2 3866   5.659   3.800   2.456 -0.7561  1.2325 -1.6127
 1092SOL     OW 3867   1.034   3.353   3.314 -0.3567 -0.2639 -0.0709
 1092SOL    HW1 3868   0.941   3.374   3.307 -0.6499 -1.7256 -0.9917
 1092SOL    HW2 3869   1.036   3.265   3.351  0.4958 -1.5336 -2.8482
 1093SOL     OW 3870   2.316   0.047   1.257 -0.1034 -0.4106 -0.2008
 1093SOL    HW1 3871   2.389  -0.014   1.258  0.6688  0.4903  0.4470
 1093SOL    HW2 3872   2.356   0.132   1.240 -0.9368  0.1687  0.6407
 1094SOL     OW 3873   5.472   5.216   2.341 -0.3752 -0.6130 -0.0280
 1094SOL    HW1 3874   5.537   5.252   2.280  0.4098 -0.2865  0.9582
 1094SOL    HW2 3875   5.479   5.121   2.332  2.2555 -0.7228  1.9840
 1095SOL     OW 3876   5.530   1.187   0.920  0.2739  0.6397  0.0657
 1095SOL    HW1 3877   5.495   1.138   0.996 -1.0156 -0.6666 -1.2879
 1095SOL    HW2 3878   5.463   1.253   0.902 -0.7516 -0.7112 -1.4345
 1096SOL     OW 3879   1.206   0.425   0.936 -0.2487 -0.5837  0.0829
 1096SOL    HW1 3880   1.128   0.474   0.911 -0.6647 -1.4124 -0.2761
 1096SOL    HW2 3881   1.278   0.486   0.921 -0.8590  0.3973  0.9631
 1097SOL     OW 3882   0.207   0.010   1.377  0.1196  0.4554  0.4000
 1097SOL    HW1 3883   0.203  -0.086   1.376 -0.8591  0.2064  5.1820
 1097SOL    HW2 3884   0.290   0.030   1.420  0.4249  1.8219 -0.7622
 1098SOL     OW 3885   2.023   0.383   1.935  0.5157  0.1250 -0.2691
 1098SOL    HW1 3886   1.987   0.392   1.847 -0.9926  0.6182  0.3817
 1098SOL    HW2 3887   1.976   0.447   1.988  1.3610 -0.1959  0.9158
 1099SOL     OW 3888   1.650   0.022   2.227  0.4439  0.5390 -0.0205
 1099SOL    HW1 3889   1.694   0.100   2.192  0.5326  0.6470  0.3245
 1099SOL    HW2 3890   1.647   0.037   2.322  1.5499 -0.4472  0.1825
 1100SOL     OW 3891   4.220   3.715   0.841 -0.1743 -0.0870  0.3478
 1100SOL    HW1 3892   4.211   3.628   0.879 -3.3784  0.0096  0.0677
 1100SOL    HW2 3893   4.167   3.772   0.897  0.7195  1.4442 -0.2709
 1101SOL     OW 3894   2.156   5.092   2.704  0.7574 -0.6799  0.1682
 1101SOL    HW1 3895   2.230   5.032   2.701  0.8138 -0.6408  0.6939
 1101SOL    HW2 3896   2.079   5.035   2.700  0.8022 -0.6788 -1.1551
 1102SOL     OW 3897   3.874   3.096   1.411 -0.1179 -0.3347 -0.1363
 1102SOL    HW1 3898   3.800   3.107   1.470 -0.3500  0.1890 -0.5207
 1102SOL    HW2 3899   3.837   3.104   1.324  0.4362  0.2346 -0.3261
 1103SOL     OW 3900   1.285   1.312   1.692  0.3416  0.2325 -0.4425
 1103SOL    HW1 3901   1.363   1.367   1.704 -1.2508  2.4104  0.8834
 1103SOL    HW2 3902   1.277   1.265   1.775 -1.5772  2.7314  0.9501
 1104SOL     OW 3903   6.716   2.946   1.591 -0.3110 -0.2496  0.1308
 1104SOL    HW1 3904   6.743   2.956   1.500  1.1354  0.8743  0.6381
 1104SOL    HW2 3905   6.711   3.036   1.625  0.1455 -0.6789  1.4108
 1105SOL     OW 3906   1.332   0.268   1.902 -0.0307  0.9769  0.9749
 1105SOL    HW1 3907   1.374   0.184   1.922  2.6704  1.9600 -0.1835
 1105SOL    HW2 3908   1.313   0.306   1.988  1.6034  0.5129  1.5875
 1106SOL     OW 3909   6.509   2.119   1.932  0.2670  0.4052  0.5613
 1106SOL    HW1 3910   6.461   2.037   1.932 -0.4545  0.8037  1.5470
 1106SOL    HW2 3911   6.505   2.150   1.842  1.1891 -0.9823  0.0188
 1107SOL     OW 3912   1.607   1.038   1.940 -0.4948 -1.0298 -0.0392
 1107SOL    HW1 3913   1.685   0.986   1.921 -0.2464 -0.6860  0.0386
 1107SOL    HW2 3914   1.548   1.022   1.865  0.7385  0.8482 -1.5108
 1108SOL     OW 3915   5.167   3.353   1.967  0.1365  0.0914 -0.2267
 1108SOL    HW1 3916   5.075   3.378   1.961  0.0737  0.1920  0.9994
 1108SOL    HW2 3917   5.214   3.435   1.979  0.4960  0.1296 -1.6716
 1109SOL     OW 3918   4.705   1.047   1.849  0.2334  0.1213 -0.1919
 1109SOL    HW1 3919   4.738   1.055   1.938  1.4876 -0.4411 -0.5826
 1109SOL    HW2 3920   4.610   1.050   1.858  0.3363 -0.2354  1.2015
 1110SOL     OW 3921   5.982   0.603   1.015 -0.3432 -0.1198 -0.4896
 1110SOL    HW1 3922   6.030   0.612   0.933 -0.3635  1.3816 -0.3808
 1110SOL    HW2 3923   6.017   0.523   1.055  2.4439  1.0715 -0.2327
 1111SOL     OW 3924   0.602   0.417   2.376  0.3852  0.2528 -0.1793
 1111SOL    HW1 3925   0.525   0.366   2.351  0.2404  1.3201 -2.2029
 1111SOL    HW2 3926   0.676   0.366   2.342  0.3572  0.5004 -0.6301
 1112SOL     OW 3927   4.251   1.819   3.454  0.4391 -0.2839 -0.3837
 1112SOL    HW1 3928   4.247   1.736   3.407 -1.9462 -1.5898  1.8443
 1112SOL    HW2 3929   4.344   1.834   3.468  0.9800 -2.0752 -1.6854
 1113SOL     OW 3930   0.449   1.130   2.877 -1.0034 -0.4282  0.1062
 1113SOL    HW1 3931   0.471   1.198   2.941 -2.9990 -1.4521  2.0017
 1113SOL    HW2 3932   0.503   1.151   2.801  0.8121  1.3945  1.7607
 1114SOL     OW 3933   3.762   4.847   1.719 -0.0093 -1.0006 -0.5575
 1114SOL    HW1 3934   3.770   4.796   1.638  1.5134 -2.2336  0.3007
 1114SOL    HW2 3935   3.777   4.783   1.788  1.9744  0.5999  0.5961
 1115SOL     OW 3936   5.683   4.948   3.282  0.4790  0.2504  0.3378
 1115SOL    HW1 3937   5.604   4.940   3.336  1.4940 -2.9028  1.6121
 1115SOL    HW2 3938   5.729   5.023   3.319 -1.5512  1.7948 -0.0512
 1116SOL     OW 3939   3.705   5.282   2.065  0.2870 -0.2466  0.0132
 1116SOL    HW1 3940   3.780   5.237   2.103  0.6715  1.3089  1.1947
 1116SOL    HW2 3941   3.647   5.300   2.139 -0.5619 -0.1318 -0.6600
 1117SOL     OW 3942   7.148   0.310   2.305  0.0472 -0.5637 -0.3254
 1117SOL    HW1 3943   7.211   0.244   2.274  0.5806  0.2259 -0.9402
 1117SOL    HW2 3944   7.165   0.387   2.251 -0.7927 -0.0206  0.1713
 1118SOL     OW 3945   1.269   3.094   2.286 -0.4910 -0.3933  0.6384
 1118SOL    HW1 3946   1.293   3.014   2.239  0.4080  1.5568 -2.5408
 1118SOL    HW2 3947   1.174   3.095   2.285 -0.4972 -0.8772 -0.3172
 1119SOL     OW 3948   2.083   3.838   3.108  0.1609 -1.1551 -0.2838
 1119SOL    HW1 3949   2.098   3.807   3.019  1.6155  1.2197 -0.9744
 1119SOL    HW2 3950   2.165   3.821   3.154  0.7270  0.8039 -0.4776
 1120SOL     OW 3951   6.233   1.649   2.891  0.2003  0.3457 -0.5548
 1120SOL    HW1 3952   6.199   1.605   2.813 -1.6072  1.0447 -0.2142
 1120SOL    HW2 3953   6.210   1.741   2.879 -0.8092  0.3576  1.1204
 1121SOL     OW 3954   3.833   0.335   1.855  0.0582  0.0274 -0.2482
 1121SOL    HW1 3955   3.927   0.348   1.862  0.6372 -2.5909 -1.9805
 1121SOL    HW2 3956   3.813   0.347   1.763 -1.4914  1.2365  0.1862
 1122SOL     OW 3957   0.538   1.914   0.830  0.1281  0.0998 -0.2728
 1122SOL    HW1 3958   0.529   2.009   0.836 -0.8903 -0.0147  0.0451
 1122SOL    HW2 3959   0.460   1.879   0.872  0.5198 -0.8859 -0.3377
 1123SOL     OW 3960   0.475   0.449   0.259  0.6179  0.4302 -0.2262
 1123SOL    HW1 3961   0.522   0.501   0.194 -0.1261  2.0686  0.4597
 1123SOL    HW2 3962   0.522   0.466   0.341  0.5870 -0.2918 -0.0582
 1124SOL     OW 3963   1.921   1.864   1.052  0.0425 -0.3777  0.3266
 1124SOL    HW1 3964   1.990   1.929   1.037 -1.1759  0.8715 -0.0651
 1124SOL    HW2 3965   1.882   1.889   1.136 -0.3161 -0.7085  0.2647
 1125SOL     OW 3966   5.865   4.105   0.874 -0.5168 -0.0966 -0.3291
 1125SOL    HW1 3967   5.922   4.070   0.943 -1.0693 -1.9316 -0.7627
 1125SOL    HW2 3968   5.919   4.101   0.795  0.1184  2.0143 -0.0671
 1126SOL     OW 3969   6.368   4.378   1.142 -0.0990 -0.3870 -0.6334
 1126SOL    HW1 3970   6.400   4.421   1.221 -0.4919  0.1868 -0.7826
 1126SOL    HW2 3971   6.317   4.304   1.174 -2.2485  1.1625 -0.2168
 1127SOL     OW 3972   2.785   4.753   1.913 -0.0405 -0.1958 -0.9085
 1127SOL    HW1 3973   2.801   4.669   1.956  0.2762 -0.2243 -1.0790
 1127SOL    HW2 3974   2.745   4.807   1.981 -0.1455 -0.4512 -0.7670
 1128SOL     OW 3975   5.867   0.669   0.332  0.1084 -0.2597 -0.7512
 1128SOL    HW1 3976   5.775   0.650   0.313 -1.0554  1.1789  2.5917
 1128SOL    HW2 3977   5.903   0.584   0.359 -1.2254 -0.3287  1.0064
 1129SOL     OW 3978   2.453   2.464   3.001 -0.3693  0.4734 -0.6765
 1129SOL    HW1 3979   2.451   2.370   3.020 -0.4550  0.6892  0.5174
 1129SOL    HW2 3980   2.539   2.479   2.962  1.0049  0.3657  2.0623
 1130SOL     OW 3981   1.526   2.683   1.197  0.3178  0.1259 -0.1556
 1130SOL    HW1 3982   1.506   2.763   1.149  1.6108  1.0976  0.8232
 1130SOL    HW2 3983   1.532   2.615   1.130 -0.0282  1.0088 -1.1040
 1131SOL     OW 3984   1.343   4.455   1.230  0.2158  0.4592  0.2253
 1131SOL    HW1 3985   1.401   4.531   1.236 -0.4866  0.9905  0.3042
 1131SOL    HW2 3986   1.352   4.425   1.140 -0.5230  1.4560 -0.2002
 1132SOL     OW 3987   1.169   3.648   2.232 -0.4082  0.0554 -0.2242
 1132SOL    HW1 3988   1.089   3.671   2.281  0.4378  2.8418  0.0636
 1132SOL    HW2 3989   1.164   3.701   2.153  0.9699 -0.0162 -0.3778
 1133SOL     OW 3990   5.052   2.752   0.067  0.3202 -0.2173  0.0072
 1133SOL    HW1 3991   5.066   2.658   0.058  0.4917 -0.1730 -0.2060
 1133SOL    HW2 3992   5.134   2.785   0.104  0.3947 -0.1036 -0.2554
 1134SOL     OW 3993   6.131   2.037   0.274 -0.3886  0.3477 -0.5645
 1134SOL    HW1 3994   6.158   2.116   0.226 -0.8412  1.1413  0.4403
 1134SOL    HW2 3995   6.053   2.006   0.228 -0.9891  1.2696 -0.2021
 1135SOL     OW 3996   3.640   1.382   0.068  0.0838 -0.0758  0.5475
 1135SOL    HW1 3997   3.622   1.356   0.158  1.9142 -1.6200  0.5565
 1135SOL    HW2 3998   3.559   1.421   0.036 -0.8583 -0.2693  2.5826
 1136SOL     OW 3999   5.175   4.157   0.050  0.1875  0.3975 -0.2802
 1136SOL    HW1 4000   5.241   4.088   0.045 -0.3310 -0.5376  3.0885
 1136SOL    HW2 4001   5.110   4.134  -0.016  0.6324 -1.6718 -0.0507
 1137SOL     OW 4002   6.098   2.726   0.940  0.5972 -0.0754 -0.1274
 1137SOL    HW1 4003   6.144   2.777   0.873 -0.0412 -0.1201 -0.6125
 1137SOL    HW2 4004   6.005   2.743   0.923  0.3909 -1.0004  0.0219
 1138SOL     OW 4005   4.386   4.706   2.380  0.5563  0.2762 -0.1327
 1138SOL    HW1 4006   4.473   4.668   2.367 -0.1318 -1.6315  0.4432
 1138SOL    HW2 4007   4.338   4.640   2.429 -1.0183  1.5903  0.1902
 1139SOL     OW 4008   6.471   2.192   0.894 -0.6445 -0.3060  0.4299
 1139SOL    HW1 4009   6.535   2.239   0.947  0.2091  0.9022 -1.5339
 1139SOL    HW2 4010   6.387   2.234   0.914 -0.2357  0.5540  0.3756
 1140SOL     OW 4011   0.115   3.375   0.767  0.3830  0.4509  0.6956
 1140SOL    HW1 4012   0.069   3.360   0.850  1.7461 -2.8931  1.0256
 1140SOL    HW2 4013   0.049   3.360   0.700  0.0206 -0.2216  1.1856
 1141SOL     OW 4014   1.219   0.607   1.971  0.0688 -0.6916 -0.5753
 1141SOL    HW1 4015   1.310   0.578   1.961  0.4246  0.2076 -0.1079
 1141SOL    HW2 4016   1.192   0.632   1.883  0.6462  0.0802 -0.5388
 1142SOL     OW 4017   5.835   3.706   1.115  0.0740 -0.2395 -0.0814
 1142SOL    HW1 4018   5.908   3.680   1.171  1.5359  1.9870 -0.8299
 1142SOL    HW2 4019   5.823   3.800   1.133 -0.4246  0.1802 -2.3614
 1143SOL     OW 4020   3.126   0.933   3.335  0.2376  0.1894  0.3044
 1143SOL    HW1 4021   3.048   0.899   3.292  0.1192  1.6066 -0.6564
 1143SOL    HW2 4022   3.144   0.870   3.405 -0.5811 -1.2384 -0.7156
 1144SOL     OW 4023   6.199   4.316   1.601 -0.0843 -0.1807 -0.2996
 1144SOL    HW1 4024   6.270   4.268   1.560 -0.9574 -2.2694  0.4890
 1144SOL    HW2 4025   6.119   4.281   1.560 -0.7426  1.1085 -0.1814
 1145SOL     OW 4026   3.937   0.934   2.001  0.0047 -0.4517  0.2905
 1145SOL    HW1 4027   3.962   0.851   1.960 -2.1704 -0.5781 -0.9183
 1145SOL    HW2 4028   3.998   0.998   1.966  0.7193 -1.2749  0.0071
 1146SOL     OW 4029   5.926   1.095   3.071 -0.1073  0.3842 -0.3766
 1146SOL    HW1 4030   6.015   1.101   3.106 -0.2774  0.6421  0.0154
 1146SOL    HW2 4031   5.869   1.110   3.146 -0.4770  1.2283 -0.8108
 1147SOL     OW 4032   5.928   2.028   1.624 -0.3695  0.3919 -0.1369
 1147SOL    HW1 4033   5.923   1.956   1.562  1.1520  0.7911 -0.7802
 1147SOL    HW2 4034   5.916   2.107   1.570  1.1806  0.7546 -0.0215
 1148SOL     OW 4035   4.909   4.295   2.701 -0.0140  0.5000  0.2276
 1148SOL    HW1 4036   4.916   4.222   2.639 -1.1454  1.9095 -1.6623
 1148SOL    HW2 4037   4.980   4.280   2.764  0.1295 -1.8955 -0.4110
 1149SOL     OW 4038   4.376   4.483   3.328 -0.3093 -0.0118 -0.6222
 1149SOL    HW1 4039   4.372   4.572   3.292 -1.2605  0.3668  0.3704
 1149SOL    HW2 4040   4.404   4.495   3.419 -1.9089 -0.5646 -0.0251
 1150SOL     OW 4041   6.959   3.134   1.455  0.6920 -0.8671 -0.1673
 1150SOL    HW1 4042   6.865   3.151   1.451  1.0651  1.4894 -0.1533
 1150SOL    HW2 4043   6.977   3.079   1.379 -0.4989 -0.3381 -0.8525
 1151SOL     OW 4044   4.120   2.572   0.544 -0.0769 -0.1218 -0.2536
 1151SOL    HW1 4045   4.101   2.660   0.577  0.2836  0.0168 -0.4117
 1151SOL    HW2 4046   4.100   2.577   0.451 -2.6800 -0.9642  0.1697
 1152SOL     OW 4047   2.455   1.226   0.529 -0.2677 -0.1968  0.0417
 1152SOL    HW1 4048   2.459   1.261   0.618 -1.0178  1.2908 -0.4771
 1152SOL    HW2 4049   2.370   1.253   0.496  0.6531  0.7285 -1.7070
 1153SOL     OW 4050   0.132   0.367   0.963  0.0553  0.2969  0.1712
 1153SOL    HW1 4051   0.135   0.460   0.986  3.5155  0.2526  0.3502
 1153SOL    HW2 4052   0.116   0.366   0.869 -0.2376  1.0439  0.2075
 1154SOL     OW 4053   2.572   0.085   1.477 -0.2653  0.1690 -0.3552
 1154SOL    HW1 4054   2.574   0.028   1.401 -1.2703  0.6975 -0.7952
 1154SOL    HW2 4055   2.635   0.154   1.457  2.7181 -1.8861  1.1474
 1155SOL     OW 4056   3.958   1.571   2.298 -0.5527  0.3102  0.3947
 1155SOL    HW1 4057   3.986   1.515   2.225  1.6005 -0.6657  1.8501
 1155SOL    HW2 4058   3.878   1.529   2.331  0.8429 -1.8839  1.2614
 1156SOL     OW 4059   6.792   2.901   3.297  0.3557 -0.0161 -0.4242
 1156SOL    HW1 4060   6.727   2.963   3.262  0.8987 -0.0960 -1.6256
 1156SOL    HW2 4061   6.772   2.819   3.253  0.8859 -0.1956 -0.3359
 1157SOL     OW 4062   6.688   3.197   1.670 -0.6802 -0.7292 -0.8335
 1157SOL    HW1 4063   6.661   3.232   1.755 -1.8827 -2.2676 -0.5312
 1157SOL    HW2 4064   6.612   3.212   1.613  0.8258  2.1599 -2.2926
 1158SOL     OW 4065   3.239   0.024   1.942 -0.3411 -0.4737 -0.1661
 1158SOL    HW1 4066   3.283  -0.019   2.015 -1.0220 -0.7508  0.0864
 1158SOL    HW2 4067   3.304   0.084   1.907  0.0093 -0.3761  0.6368
 1159SOL     OW 4068   4.518   1.560   1.816 -0.7277 -0.1881 -0.4440
 1159SOL    HW1 4069   4.425   1.571   1.837 -0.2299  0.7588  1.4753
 1159SOL    HW2 4070   4.535   1.625   1.748 -0.9241  1.5780  1.1133
 1160SOL     OW 4071   1.804   2.828   0.399 -0.3388  0.1008 -0.0215
 1160SOL    HW1 4072   1.818   2.884   0.323 -0.8259  0.5828  0.2340
 1160SOL    HW2 4073   1.847   2.745   0.377 -0.2482  0.3269 -0.7043
 1161SOL     OW 4074   7.043   4.026   2.412  0.0043 -0.1375  0.4165
 1161SOL    HW1 4075   6.989   4.048   2.336 -0.3841 -0.6370  0.5443
 1161SOL    HW2 4076   7.005   3.945   2.446  0.7561 -0.4397  0.5771
 1162SOL     OW 4077   4.268   0.405   2.777 -0.2021 -0.1605 -0.0821
 1162SOL    HW1 4078   4.361   0.426   2.772 -0.0032 -1.0424 -0.2694
 1162SOL    HW2 4079   4.257   0.360   2.861 -1.2045  3.3208  1.8434
 1163SOL     OW 4080   1.207   1.646   0.171 -0.4565  0.0324 -0.3083
 1163SOL    HW1 4081   1.270   1.579   0.146 -0.7534 -0.2359 -0.3449
 1163SOL    HW2 4082   1.254   1.729   0.161 -0.4130 -0.0993 -1.2889
 1164SOL     OW 4083   5.691   0.004   2.129  0.4450  0.5360 -0.0970
 1164SOL    HW1 4084   5.702   0.097   2.150 -2.1501  1.0892 -0.7462
 1164SOL    HW2 4085   5.600  -0.003   2.100 -0.1603 -2.5925  1.9741
 1165SOL     OW 4086   4.275   5.170   2.828  0.0251 -0.1307  0.0278
 1165SOL    HW1 4087   4.271   5.212   2.742  0.9077 -0.1573 -0.0268
 1165SOL    HW2 4088   4.297   5.241   2.888  0.7567 -0.3597  0.0395
 1166SOL     OW 4089   2.081   2.195   2.632 -0.3214  0.6092 -0.4248
 1166SOL    HW1 4090   2.119   2.282   2.625  1.1694 -0.0914 -1.6336
 1166SOL    HW2 4091   2.018   2.202   2.704  0.0247  2.5673 -0.2597
 1167SOL     OW 4092   2.797   1.937   1.657 -0.5179 -0.1326  0.1846
 1167SOL    HW1 4093   2.884   1.947   1.619 -0.6329  1.4929  0.2715
 1167SOL    HW2 4094   2.791   2.008   1.722 -2.9636  1.7212 -1.8605
 1168SOL     OW 4095   2.185   1.723   2.200 -0.5164  0.0192  0.3899
 1168SOL    HW1 4096   2.115   1.747   2.261 -0.2658  1.9473 -0.0109
 1168SOL    HW2 4097   2.258   1.779   2.225 -0.2840  0.5834 -1.4122
 1169SOL     OW 4098   3.760   0.061   1.834 -0.0446 -0.5032 -0.1101
 1169SOL    HW1 4099   3.744  -0.010   1.896 -2.8256  0.6120  0.5625
 1169SOL    HW2 4100   3.807   0.127   1.885 -1.4323 -0.0123  0.5601
 1170SOL     OW 4101   0.477   0.932   0.241 -0.4249  0.4591 -0.1777
 1170SOL    HW1 4102   0.404   0.871   0.229 -0.5064  0.6069 -0.4392
 1170SOL    HW2 4103   0.462   1.001   0.177 -0.8806  1.2810  0.7981
 1171SOL     OW 4104   0.798   3.304   0.605 -0.0058 -0.2201 -0.3916
 1171SOL    HW1 4105   0.794   3.267   0.516 -1.0180  1.9850 -1.3336
 1171SOL    HW2 4106   0.798   3.399   0.591 -1.3615  0.2027  1.9947
 1172SOL     OW 4107   3.148   1.376   1.340 -0.8111 -0.1617 -0.0743
 1172SOL    HW1 4108   3.147   1.304   1.277  0.8571 -1.0693  0.8559
 1172SOL    HW2 4109   3.138   1.334   1.425 -1.6507  0.9051  0.3734
 1173SOL     OW 4110   5.216   0.219   0.640 -0.9148  0.3539 -0.2693
 1173SOL    HW1 4111   5.271   0.291   0.608  0.9018 -1.6454 -1.9429
 1173SOL    HW2 4112   5.230   0.148   0.577 -2.7812 -1.4240  1.1892
 1174SOL     OW 4113   5.589   1.894   0.304 -0.0920  0.4123 -0.0091
 1174SOL    HW1 4114   5.680   1.901   0.336 -0.4390 -0.3486  1.2216
 1174SOL    HW2 4115   5.562   1.806   0.329 -1.4427  0.9194  0.3949
 1175SOL     OW 4116   2.897   4.697   3.241 -0.2682  0.2681  0.3877
 1175SOL    HW1 4117   2.914   4.645   3.162  1.3115 -0.0696  0.9250
 1175SOL    HW2 4118   2.957   4.771   3.235 -1.9168  1.6434  0.0503
 1176SOL     OW 4119   2.875   4.283   3.437 -0.5229  0.4729 -0.3260
 1176SOL    HW1 4120   2.919   4.277   3.522 -0.9689 -2.9804 -0.1924
 1176SOL    HW2 4121   2.945   4.305   3.376  1.0010 -2.2170  0.2693
 1177SOL     OW 4122   2.275   1.660   1.078 -0.2893 -0.5401  0.0878
 1177SOL    HW1 4123   2.318   1.740   1.108 -1.9883  0.5818 -0.3308
 1177SOL    HW2 4124   2.298   1.654   0.985 -0.6645 -0.1834 -0.0306
 1178SOL     OW 4125   0.748   3.756   2.131 -0.2087  0.0348  0.2565
 1178SOL    HW1 4126   0.834   3.725   2.160 -0.5372  0.6180  1.9816
 1178SOL    HW2 4127   0.689   3.683   2.151 -0.1894 -0.2383 -0.6240
 1179SOL     OW 4128   1.669   4.310   1.123 -0.6937  0.6173 -0.2896
 1179SOL    HW1 4129   1.703   4.398   1.111 -0.9022  0.4707 -2.5032
 1179SOL    HW2 4130   1.621   4.292   1.041 -0.9104 -1.4200  0.2318
 1180SOL     OW 4131   0.901   3.333   2.859  0.1613 -0.0424 -0.9592
 1180SOL    HW1 4132   0.944   3.385   2.927  0.7434  0.2606 -1.5503
 1180SOL    HW2 4133   0.808   3.355   2.868  0.4029  1.1805 -1.2406
 1181SOL     OW 4134   0.544   3.429   2.170  0.0987  0.4637  0.2737
 1181SOL    HW1 4135   0.451   3.411   2.157  0.1310 -0.4792  1.1895
 1181SOL    HW2 4136   0.582   3.343   2.186  1.3085  0.7224 -1.0571
 1182SOL     OW 4137   2.680   4.757   0.534  0.5283  0.5940 -0.4046
 1182SOL    HW1 4138   2.676   4.685   0.470  0.6966 -0.0157  0.2617
 1182SOL    HW2 4139   2.759   4.806   0.509  0.2943  0.6815 -0.9937
 1183SOL     OW 4140   2.721   3.011   1.724 -0.1034 -0.5361 -0.1122
 1183SOL    HW1 4141   2.730   3.079   1.656 -0.8647 -1.9674 -1.7282
 1183SOL    HW2 4142   2.650   3.043   1.780 -0.0882  0.2663 -0.5335
 1184SOL     OW 4143   0.760   0.974   0.943 -0.7061 -0.0709  0.8809
 1184SOL    HW1 4144   0.798   1.018   0.867 -0.2330 -2.1853 -0.1507
 1184SOL    HW2 4145   0.744   1.045   1.005 -0.8109  1.6828 -1.0413
 1185SOL     OW 4146   4.904   3.723   1.884 -0.0016  0.8313 -0.1457
 1185SOL    HW1 4147   4.815   3.728   1.848 -0.0248  1.6100 -0.0128
 1185SOL    HW2 4148   4.955   3.780   1.826  0.0051  1.9269  0.9134
 1186SOL     OW 4149   0.639   3.090   1.037  0.1335 -0.1009 -0.3172
 1186SOL    HW1 4150   0.625   3.150   0.964  2.3044 -0.2075 -0.8765
 1186SOL    HW2 4151   0.684   3.015   0.998  0.5157 -0.5586  0.9683
 1187SOL     OW 4152   4.046   3.138   2.884  0.1058 -0.6098  0.5416
 1187SOL    HW1 4153   3.976   3.082   2.851 -1.7815  1.2502  1.1367
 1187SOL    HW2 4154   4.001   3.203   2.938  2.3884  0.3065  1.4694
 1188SOL     OW 4155   4.733   5.192   1.781  0.0040 -0.1793  0.1307
 1188SOL    HW1 4156   4.643   5.187   1.750  0.0318 -1.0787  0.1698
 1188SOL    HW2 4157   4.760   5.100   1.791  1.5711 -0.0124 -1.8459
 1189SOL     OW 4158   5.771   4.541   1.242  0.0279  0.3124  0.3043
 1189SOL    HW1 4159   5.792   4.494   1.161 -1.3759 -0.9164  0.6237
 1189SOL    HW2 4160   5.830   4.617   1.241  1.2833 -0.6224 -0.9794
 1190SOL     OW 4161   7.059   1.165   0.482  0.4227  0.1885  0.2750
 1190SOL    HW1 4162   7.096   1.081   0.508  1.1060  0.6168  0.7423
 1190SOL    HW2 4163   7.080   1.174   0.389  0.4178 -0.1223  0.2454
 1191SOL     OW 4164   2.210   3.763   0.820  0.5173 -0.0154  0.0446
 1191SOL    HW1 4165   2.167   3.680   0.838 -0.0130  0.2328 -0.0832
 1191SOL    HW2 4166   2.179   3.788   0.733  1.0675  0.0693 -0.1320
 1192SOL     OW 4167   2.302   4.083   0.435 -0.0165  0.1279  0.4609
 1192SOL    HW1 4168   2.249   4.149   0.479 -0.1628  0.8150 -0.6945
 1192SOL    HW2 4169   2.391   4.119   0.435 -0.0488  0.2124  0.0540
 1193SOL     OW 4170   1.057   0.437   1.168 -0.0460  0.4128 -0.1797
 1193SOL    HW1 4171   0.987   0.480   1.120  0.0840 -0.8796 -1.5979
 1193SOL    HW2 4172   1.121   0.414   1.102  0.3696 -1.0124  0.6746
 1194SOL     OW 4173   3.423   3.751   0.865  0.3625 -0.2624  0.2779
 1194SOL    HW1 4174   3.495   3.754   0.802  0.3377 -1.4045  0.1628
 1194SOL    HW2 4175   3.350   3.794   0.821  0.5039 -0.5665 -0.2658
 1195SOL     OW 4176   2.930   5.185   2.984  0.3977 -0.0872  0.5301
 1195SOL    HW1 4177   2.982   5.218   3.057  0.1376  0.6134  0.4098
 1195SOL    HW2 4178   2.840   5.209   3.007  0.3344  0.2697 -0.0896
 1196SOL     OW 4179   6.423   0.464   1.815  0.3891 -0.0908  0.3376
 1196SOL    HW1 4180   6.467   0.379   1.818 -0.8207 -0.8077 -0.9866
 1196SOL    HW2 4181   6.456   0.511   1.892  1.2754 -1.6476  0.9518
 1197SOL     OW 4182   2.941   3.207   3.434 -0.3511  0.3201 -0.3692
 1197SOL    HW1 4183   2.961   3.115   3.416 -0.3912  0.3115 -0.3687
 1197SOL    HW2 4184   2.847   3.215   3.418 -0.8002 -0.1616  1.8058
 1198SOL     OW 4185   3.276   2.736   2.911  0.4608 -0.1123  0.1735
 1198SOL    HW1 4186   3.191   2.776   2.892  0.4566 -0.8377 -1.5587
 1198SOL    HW2 4187   3.313   2.718   2.825  3.1951  1.8207  0.8134
 1199SOL     OW 4188   6.276   0.486   2.679 -0.0145  0.1459  0.6613
 1199SOL    HW1 4189   6.300   0.561   2.734 -1.3459 -0.2410  1.8230
 1199SOL    HW2 4190   6.357   0.436   2.670  1.0516  2.0010 -0.6404
 1200SOL     OW 4191   4.743   4.277   0.455  0.2023 -0.0714 -0.0163
 1200SOL    HW1 4192   4.807   4.305   0.521 -0.1462  2.3107 -0.6317
 1200SOL    HW2 4193   4.791   4.281   0.372 -0.3150  0.2113 -0.2997
 1201SOL     OW 4194   5.902   3.509   0.424 -0.6068  0.3516 -0.5218
 1201SOL    HW1 4195   5.853   3.576   0.376 -0.7824  0.4073 -0.2671
 1201SOL    HW2 4196   5.984   3.501   0.376  0.3683  2.3491  0.6710
 1202SOL     OW 4197   6.338   1.310   2.209  0.0171 -0.0142  0.3721
 1202SOL    HW1 4198   6.312   1.390   2.163 -0.1297 -0.4442 -0.3042
 1202SOL    HW2 4199   6.256   1.276   2.245  0.4225  1.6111  3.1181
 1203SOL     OW 4200   1.783   4.532   2.764 -0.4682  0.4171 -0.2010
 1203SOL    HW1 4201   1.811   4.550   2.674  0.0143  1.1667  0.0922
 1203SOL    HW2 4202   1.729   4.608   2.787 -1.0062 -0.0148 -0.0297
 1204SOL     OW 4203   6.707   2.804   2.207 -0.0030 -0.6642 -0.0890
 1204SOL    HW1 4204   6.765   2.753   2.263  1.8799  1.3559 -0.0289
 1204SOL    HW2 4205   6.717   2.765   2.120  1.9248 -0.0876 -0.1817
 1205SOL     OW 4206   0.151   5.104   2.813 -0.1044  0.1417 -0.3760
 1205SOL    HW1 4207   0.120   5.095   2.903 -0.9006 -1.8411 -0.7796
 1205SOL    HW2 4208   0.220   5.170   2.817 -0.4333  0.4199  1.5980
 1206SOL     OW 4209   4.165   0.018   2.648 -0.4129 -0.1842 -0.4302
 1206SOL    HW1 4210   4.107   0.050   2.717 -0.3994  1.7718 -1.2590
 1206SOL    HW2 4211   4.172   0.092   2.587  1.1775 -1.1574 -1.4872
 1207SOL     OW 4212   2.577   3.058   2.827 -0.1117  0.2440 -0.0712
 1207SOL    HW1 4213   2.666   3.070   2.793 -0.6260  1.5354 -1.0440
 1207SOL    HW2 4214   2.586   3.073   2.921  0.8994 -0.8781  0.0428
 1208SOL     OW 4215   1.712   2.554   3.453  0.1119  0.4316 -0.0092
 1208SOL    HW1 4216   1.681   2.596   3.373  0.0693 -1.7019 -1.2067
 1208SOL    HW2 4217   1.633   2.515   3.491  0.2282  0.9475  0.7779
 1209SOL     OW 4218   5.060   4.068   0.402 -0.0197 -0.1187 -0.3314
 1209SOL    HW1 4219   5.078   4.116   0.483 -2.7269 -0.3009  0.4624
 1209SOL    HW2 4220   5.102   3.983   0.416  1.2171  0.5072 -0.0041
 1210SOL     OW 4221   6.535   5.172   3.108  0.0641  0.0905  0.4328
 1210SOL    HW1 4222   6.530   5.267   3.120 -0.4077  0.3117 -1.2757
 1210SOL    HW2 4223   6.453   5.138   3.144  0.2077  0.3210  0.9892
 1211SOL     OW 4224   3.562   3.042   2.832  0.0953  0.1370  0.5469
 1211SOL    HW1 4225   3.472   3.017   2.809 -0.0614  0.3106  0.9539
 1211SOL    HW2 4226   3.578   3.122   2.782  0.1512 -0.0948  0.1957
 1212SOL     OW 4227   2.602   1.210   1.849 -0.4445  0.0588 -0.1078
 1212SOL    HW1 4228   2.574   1.118   1.850 -0.0748 -0.0587 -0.2518
 1212SOL    HW2 4229   2.554   1.250   1.777 -1.9014  0.4002  1.0140
 1213SOL     OW 4230   4.032   3.699   0.129 -0.2002  0.0084 -0.4251
 1213SOL    HW1 4231   4.055   3.743   0.210 -0.3119 -0.6052 -0.0501
 1213SOL    HW2 4232   3.956   3.645   0.152 -1.2774  1.0783 -1.3396
 1214SOL     OW 4233   5.976   3.309   1.704 -0.1606 -0.4443  0.0480
 1214SOL    HW1 4234   5.931   3.228   1.680  1.1720 -1.3942  0.5617
 1214SOL    HW2 4235   6.055   3.279   1.751 -0.4848  1.1914  1.7706
 1215SOL     OW 4236   6.812   2.334   1.557 -0.7419  0.5075 -0.2713
 1215SOL    HW1 4237   6.808   2.392   1.634 -1.4711  1.3365 -0.9097
 1215SOL    HW2 4238   6.816   2.394   1.482 -0.9889 -0.2770 -0.9225
 1216SOL     OW 4239   2.382   4.931   3.320  0.4979 -0.2975 -0.2692
 1216SOL    HW1 4240   2.329   4.901   3.247  0.0093 -0.2796  0.0728
 1216SOL    HW2 4241   2.473   4.914   3.293  0.3160 -0.4227 -0.8124
 1217SOL     OW 4242   5.358   3.804   1.585 -0.0838 -0.5965 -0.3382
 1217SOL    HW1 4243   5.429   3.747   1.617 -0.0599 -1.0177 -1.1174
 1217SOL    HW2 4244   5.376   3.814   1.492  0.6895  1.8319  0.0202
 1218SOL     OW 4245   3.508   4.641   1.670 -0.0706  0.2574  0.0795
 1218SOL    HW1 4246   3.530   4.618   1.580 -1.7059  0.8432 -0.5025
 1218SOL    HW2 4247   3.514   4.736   1.673 -0.8709  0.3105  0.3328
 1219SOL     OW 4248   4.296   5.027   3.316 -0.0087 -0.4575  0.2584
 1219SOL    HW1 4249   4.206   5.060   3.323  0.1875  0.0705  0.3205
 1219SOL    HW2 4250   4.320   5.042   3.225 -0.4530 -1.8403 -0.1046
 1220SOL     OW 4251   0.823   3.777   0.301 -0.0675  0.4533  0.0471
 1220SOL    HW1 4252   0.758   3.707   0.298 -0.1852  0.4508  1.8165
 1220SOL    HW2 4253   0.789   3.843   0.240 -1.0652 -0.0936 -0.0172
 1221SOL     OW 4254   4.093   1.846   1.852  0.7093  0.0381  0.0387
 1221SOL    HW1 4255   4.086   1.833   1.946 -0.5769 -0.9746 -0.1650
 1221SOL    HW2 4256   4.054   1.932   1.836  0.5608  0.0374  0.3999
 1222SOL     OW 4257   6.177   1.093   2.368 -0.0654  0.4335 -0.0278
 1222SOL    HW1 4258   6.267   1.094   2.401  0.4295  0.4037 -1.3270
 1222SOL    HW2 4259   6.166   1.006   2.330  0.1575  1.1798 -1.9179
 1223SOL     OW 4260   0.400   0.090   1.522 -0.5192 -0.1338  0.2695
 1223SOL    HW1 4261   0.492   0.111   1.541 -0.2828 -2.8153  2.8807
 1223SOL    HW2 4262   0.351   0.126   1.596 -1.6075  1.1168 -1.0133
 1224SOL     OW 4263   3.347   4.836   1.166  0.0491  0.8949 -0.1797
 1224SOL    HW1 4264   3.381   4.749   1.186  2.9347  1.9997  0.1990
 1224SOL    HW2 4265   3.259   4.836   1.204 -0.3615 -2.0453 -0.8520
 1225SOL     OW 4266   6.573   4.028   1.245 -0.7724  0.9343  0.1201
 1225SOL    HW1 4267   6.648   4.063   1.197  0.0164 -0.5698  0.2205
 1225SOL    HW2 4268   6.500   4.084   1.219  0.7664  4.0203  1.8333
 1226SOL     OW 4269   2.888   4.262   1.471  0.0097  0.5382 -0.0454
 1226SOL    HW1 4270   2.898   4.168   1.489 -0.6789  0.4027 -0.3529
 1226SOL    HW2 4271   2.831   4.266   1.394 -1.4224  1.2519  1.0037
 1227SOL     OW 4272   3.180   0.153   2.411 -0.0925  0.4479 -0.2370
 1227SOL    HW1 4273   3.124   0.208   2.466  0.0635  0.4865 -0.1171
 1227SOL    HW2 4274   3.212   0.211   2.342  1.3436  0.9145  0.7792
 1228SOL     OW 4275   0.190   0.631   2.911 -0.3035 -0.3877  0.1917
 1228SOL    HW1 4276   0.228   0.718   2.922 -1.2977  0.0331  0.3131
 1228SOL    HW2 4277   0.136   0.618   2.989 -1.2033 -0.5656 -0.4442
 1229SOL     OW 4278   7.353   3.311   0.497 -0.2925  0.0239  0.3982
 1229SOL    HW1 4279   7.322   3.400   0.483 -0.5306 -0.1573 -0.2511
 1229SOL    HW2 4280   7.304   3.280   0.573 -1.7563 -0.2690 -0.6200
 1230SOL     OW 4281   6.705   0.736   0.848  0.0253 -0.3998 -0.5118
 1230SOL    HW1 4282   6.622   0.689   0.838 -0.2523  0.2318 -1.2651
 1230SOL    HW2 4283   6.768   0.687   0.796 -0.0313 -0.5109 -0.4739
 1231SOL     OW 4284   3.415   2.009   1.438 -0.1149  0.2051  0.0294
 1231SOL    HW1 4285   3.447   2.090   1.398  1.8206 -0.0148  1.0193
 1231SOL    HW2 4286   3.417   2.025   1.532  1.5266 -1.3661  0.3182
 1232SOL     OW 4287   1.732   3.402   0.588  0.5336  0.3672  0.1217
 1232SOL    HW1 4288   1.722   3.359   0.673  1.0159  0.0583  0.0280
 1232SOL    HW2 4289   1.799   3.351   0.543 -0.6134 -0.2218 -0.9497
 1233SOL     OW 4290   0.058   1.368   1.317 -0.1147  0.0901  0.7867
 1233SOL    HW1 4291   0.126   1.426   1.351  1.2489 -1.0390  0.0967
 1233SOL    HW2 4292   0.106   1.297   1.275 -1.7002  0.7513 -2.4002
 1234SOL     OW 4293   1.493   4.861   1.466  0.2581 -0.4594  0.0608
 1234SOL    HW1 4294   1.523   4.945   1.431  1.0644 -0.4548  0.7279
 1234SOL    HW2 4295   1.559   4.798   1.436 -0.7420 -0.9953 -1.0675
 1235SOL     OW 4296   5.931   5.050   1.066  0.2065 -0.0906  0.0353
 1235SOL    HW1 4297   5.850   5.097   1.087  0.4133 -0.1092  0.8782
 1235SOL    HW2 4298   6.000   5.115   1.077  0.2732  0.0738 -1.2043
 1236SOL     OW 4299   7.244   3.284   2.051 -0.3117 -0.3112  0.2762
 1236SOL    HW1 4300   7.314   3.254   2.108  0.5560 -0.1485 -0.6827
 1236SOL    HW2 4301   7.195   3.205   2.028 -1.6712 -0.2017  2.4881
 1237SOL     OW 4302   7.351   4.885   2.127  0.1331 -0.2107 -0.0797
 1237SOL    HW1 4303   7.417   4.879   2.196  0.4648 -2.1247 -0.5135
 1237SOL    HW2 4304   7.400   4.910   2.049 -0.0014  0.4358  0.0376
 1238SOL     OW 4305   6.966   3.228   1.772 -0.1645 -0.1885 -0.6439
 1238SOL    HW1 4306   6.971   3.134   1.752 -0.5552 -0.2108 -0.6465
 1238SOL    HW2 4307   6.888   3.258   1.726 -0.0494  0.1354 -0.6262
 1239SOL     OW 4308   4.040   4.034   1.214 -0.4462 -0.4838  0.3302
 1239SOL    HW1 4309   4.017   3.954   1.263 -1.5740 -0.5964 -0.3581
 1239SOL    HW2 4310   3.968   4.094   1.232  0.0045  0.0986  0.1984
 1240SOL     OW 4311   0.469   1.405   1.321 -0.0945 -0.7550 -0.1142
 1240SOL    HW1 4312   0.555   1.410   1.281 -0.3089 -0.0192 -0.4944
 1240SOL    HW2 4313   0.486   1.378   1.412  0.5657 -0.1401 -0.0516
 1241SOL     OW 4314   3.379   2.309   2.932 -0.2222  0.1207 -0.5224
 1241SOL    HW1 4315   3.420   2.222   2.925  0.0875  0.2551 -0.4063
 1241SOL    HW2 4316   3.452   2.370   2.921 -0.1143  0.3697  1.1975
 1242SOL     OW 4317   4.548   2.685   2.979  0.9654  0.0020 -0.0194
 1242SOL    HW1 4318   4.566   2.592   2.996 -0.5313 -0.0781  1.2895
 1242SOL    HW2 4319   4.540   2.690   2.883  2.0228 -1.0051 -0.1928
 1243SOL     OW 4320   3.056   1.955   0.060  0.0564  0.3565 -0.1444
 1243SOL    HW1 4321   3.031   1.956   0.152 -0.2609  0.9586 -0.2355
 1243SOL    HW2 4322   2.976   1.932   0.013  0.5999 -1.6654 -0.1662
 1244SOL     OW 4323   2.677   4.488   3.444 -1.0807 -0.3717  0.1809
 1244SOL    HW1 4324   2.732   4.566   3.449 -1.0042 -0.4230  0.1365
 1244SOL    HW2 4325   2.738   4.416   3.435 -1.1653 -0.3972 -0.2274
 1245SOL     OW 4326   6.648   2.727   0.324  0.2215  0.4371  0.3499
 1245SOL    HW1 4327   6.711   2.672   0.278 -0.1678  0.3411 -0.0716
 1245SOL    HW2 4328   6.696   2.806   0.346  0.6762  0.0886  0.6146
 1246SOL     OW 4329   0.635   1.900   0.546  0.1483  0.0795 -0.0824
 1246SOL    HW1 4330   0.626   1.913   0.640  1.8843  1.8720 -0.1102
 1246SOL    HW2 4331   0.656   1.807   0.537  1.8893  0.2741  1.4918
 1247SOL     OW 4332   1.774   1.357   1.729  0.7464 -0.0520 -0.5670
 1247SOL    HW1 4333   1.700   1.309   1.691  1.5509 -1.9711  0.1842
 1247SOL    HW2 4334   1.797   1.422   1.662 -0.3967 -0.7011 -1.6275
 1248SOL     OW 4335   1.077   2.144   1.303  0.1734  0.2362 -0.4952
 1248SOL    HW1 4336   1.131   2.074   1.266  0.9465 -0.2462  1.4497
 1248SOL    HW2 4337   1.062   2.118   1.393 -0.3716  2.1038 -0.0036
 1249SOL     OW 4338   6.541   2.990   2.639  0.6728 -0.4614 -0.3952
 1249SOL    HW1 4339   6.627   2.949   2.631  1.4460  0.9345  0.3669
 1249SOL    HW2 4340   6.554   3.059   2.705 -0.4197  1.3194 -1.9700
 1250SOL     OW 4341   0.132   4.027   2.307  0.0355 -0.1979 -0.3471
 1250SOL    HW1 4342   0.103   4.066   2.390  1.3056 -0.6280  0.3167
 1250SOL    HW2 4343   0.053   4.025   2.253 -0.3764  2.0199  0.0727
 1251SOL     OW 4344   0.987   1.801   0.105  0.3394 -0.3365 -0.2786
 1251SOL    HW1 4345   0.946   1.815   0.190 -0.8023 -0.8141 -0.7270
 1251SOL    HW2 4346   1.063   1.745   0.123 -0.5752 -1.4404  0.2967
 1252SOL     OW 4347   2.226   0.932   3.388 -0.0367 -0.5114  0.5389
 1252SOL    HW1 4348   2.297   0.963   3.444 -1.2913  0.5330  1.6313
 1252SOL    HW2 4349   2.186   0.861   3.438 -0.6024 -0.1758  0.5778
 1253SOL     OW 4350   3.057   4.050   0.862  0.7817  0.7624  0.3694
 1253SOL    HW1 4351   3.148   4.053   0.892  1.4462 -1.5070 -1.1342
 1253SOL    HW2 4352   3.063   4.026   0.769 -1.3551 -1.7073  0.7433
 1254SOL     OW 4353   7.239   0.428   3.467  0.0843  0.0270  0.5039
 1254SOL    HW1 4354   7.199   0.419   3.554  1.1163 -0.7758  0.9154
 1254SOL    HW2 4355   7.267   0.339   3.444  1.1314  0.4700  0.0019
 1255SOL     OW 4356   5.679   1.860   1.618 -0.3104 -0.3441 -0.2661
 1255SOL    HW1 4357   5.653   1.944   1.579  0.3955 -0.5035 -1.0806
 1255SOL    HW2 4358   5.598   1.809   1.619 -0.5522  0.0210 -0.5883
 1256SOL     OW 4359   1.148   3.649   0.674 -0.7045  0.3633  0.4113
 1256SOL    HW1 4360   1.189   3.623   0.592 -0.5867  1.1469  0.2187
 1256SOL    HW2 4361   1.141   3.744   0.669 -1.4529  0.3504  0.9535
 1257SOL     OW 4362   3.950   4.517   1.686  0.5837  0.4519  0.5961
 1257SOL    HW1 4363   4.039   4.518   1.722  0.9929 -1.6395 -0.1806
 1257SOL    HW2 4364   3.894   4.535   1.762  1.6235  1.4353  1.1777
 1258SOL     OW 4365   1.499   1.875   0.780 -0.2882  0.5406 -0.0079
 1258SOL    HW1 4366   1.573   1.818   0.760  0.4994  0.4932  2.6393
 1258SOL    HW2 4367   1.508   1.948   0.719 -0.6844 -1.4935 -2.7208
 1259SOL     OW 4368   6.043   4.496   1.324  0.0487 -0.3004  0.4783
 1259SOL    HW1 4369   6.071   4.515   1.235 -0.8368  0.4216  0.3416
 1259SOL    HW2 4370   6.125   4.482   1.372  0.7440  2.2620  0.2110
 1260SOL     OW 4371   3.551   1.301   2.342  0.1381  0.9720 -0.0547
 1260SOL    HW1 4372   3.562   1.237   2.412 -0.2509  0.5200 -0.3978
 1260SOL    HW2 4373   3.456   1.316   2.338  0.1810  1.1916 -0.3089
 1261SOL     OW 4374   6.516   2.358   1.617  0.6149 -0.4184 -0.5266
 1261SOL    HW1 4375   6.525   2.395   1.529  2.1121  0.2140 -0.1500
 1261SOL    HW2 4376   6.495   2.433   1.673  0.9971 -0.5755 -0.1600
 1262SOL     OW 4377   3.287   3.349   0.214 -0.8836 -0.4615 -0.4571
 1262SOL    HW1 4378   3.338   3.283   0.168 -1.9162 -0.7178 -1.2721
 1262SOL    HW2 4379   3.215   3.369   0.154  0.0010  2.2450 -0.7555
 1263SOL     OW 4380   1.979   2.978   1.090  0.0573  0.2084 -0.1009
 1263SOL    HW1 4381   1.954   2.986   1.182 -1.0126 -1.5981 -0.1961
 1263SOL    HW2 4382   2.075   2.982   1.091  0.0230  1.9549  0.8621
 1264SOL     OW 4383   1.981   4.167   2.288  0.0356 -0.1081 -0.2789
 1264SOL    HW1 4384   1.963   4.260   2.280  0.9437  0.2576  1.4225
 1264SOL    HW2 4385   1.906   4.124   2.246 -0.9262  1.3818 -0.1393
 1265SOL     OW 4386   2.983   1.669   2.807 -0.2894  0.4933 -0.2224
 1265SOL    HW1 4387   3.028   1.746   2.842 -1.6746  1.2620 -0.0599
 1265SOL    HW2 4388   2.979   1.608   2.880  0.5572  0.3702 -0.2686
 1266SOL     OW 4389   5.071   3.728   0.052 -0.0463  0.2214 -0.3947
 1266SOL    HW1 4390   5.085   3.687   0.137  0.4714 -0.6684 -0.8914
 1266SOL    HW2 4391   5.023   3.809   0.071  0.0502  0.0219  0.7300
 1267SOL     OW 4392   7.118   5.272   2.444  0.2271 -0.3260  0.4388
 1267SOL    HW1 4393   7.026   5.282   2.420  0.6828  2.1699 -0.5936
 1267SOL    HW2 4394   7.153   5.210   2.380  0.2136  2.2159 -2.2649
 1268SOL     OW 4395   5.235   2.400   0.927 -0.1298 -0.1373  0.2484
 1268SOL    HW1 4396   5.276   2.476   0.969  1.1990 -1.6710  1.8902
 1268SOL    HW2 4397   5.299   2.370   0.864  0.3580 -1.2141  1.2274
 1269SOL     OW 4398   3.090   5.333   3.153  0.0560  0.2276 -0.3188
 1269SOL    HW1 4399   3.184   5.321   3.140  0.4854  1.6360  1.1521
 1269SOL    HW2 4400   3.077   5.428   3.149 -1.0461  0.1548  0.9261
 1270SOL     OW 4401   1.755   2.494   3.023  0.3196 -0.1380 -0.2920
 1270SOL    HW1 4402   1.715   2.487   2.937  0.3074 -1.3975 -0.2080
 1270SOL    HW2 4403   1.827   2.555   3.012 -0.1992  0.3593 -0.9871
 1271SOL     OW 4404   2.901   0.042   1.253 -0.4308  0.3826  0.3836
 1271SOL    HW1 4405   2.974   0.019   1.312 -0.1417  1.7212  0.5818
 1271SOL    HW2 4406   2.936   0.027   1.165  0.0204  0.7879  0.4854
 1272SOL     OW 4407   6.693   3.654   3.343 -0.0127  0.1189 -0.3414
 1272SOL    HW1 4408   6.784   3.633   3.364  0.5381  2.5187 -0.0015
 1272SOL    HW2 4409   6.667   3.587   3.280  2.5173  0.1916 -1.6138
 1273SOL     OW 4410   4.045   5.222   3.067 -0.1900  0.1607  0.0542
 1273SOL    HW1 4411   3.972   5.283   3.059 -0.0241  0.1317 -2.3878
 1273SOL    HW2 4412   4.122   5.277   3.074 -0.0367  0.3229 -2.1856
 1274SOL     OW 4413   2.592   4.037   2.050  0.3361 -0.3338 -0.2368
 1274SOL    HW1 4414   2.543   3.958   2.030  2.1750 -1.1477 -1.8749
 1274SOL    HW2 4415   2.574   4.096   1.977  0.0238  0.2596  0.3071
 1275SOL     OW 4416   2.872   4.007   0.027 -0.1608  0.2730 -0.3942
 1275SOL    HW1 4417   2.874   4.083  -0.031 -0.1775 -0.4111 -1.3184
 1275SOL    HW2 4418   2.782   3.974   0.020 -0.5601  0.9734  1.0958
 1276SOL     OW 4419   2.435   2.770   3.005  0.0146  0.7890  0.1110
 1276SOL    HW1 4420   2.485   2.821   2.942  1.4755  0.3223  0.8345
 1276SOL    HW2 4421   2.461   2.679   2.988 -1.0627  0.4656  0.1135
 1277SOL     OW 4422   4.435   5.185   0.115  0.2212 -0.0942  0.0255
 1277SOL    HW1 4423   4.417   5.194   0.021 -1.5286 -0.7266  0.2615
 1277SOL    HW2 4424   4.529   5.167   0.120 -0.0928 -2.9038 -1.8431
 1278SOL     OW 4425   2.388   4.419   2.412 -0.4343  0.6346  0.0297
 1278SOL    HW1 4426   2.446   4.478   2.364 -1.7605  1.6103 -0.4391
 1278SOL    HW2 4427   2.399   4.444   2.504 -0.7497  1.4156 -0.1358
 1279SOL     OW 4428   3.496   5.159   0.191 -0.3970 -0.2553 -0.2495
 1279SOL    HW1 4429   3.419   5.111   0.161  1.4728 -2.5913 -1.6790
 1279SOL    HW2 4430   3.553   5.092   0.230  1.0976  1.3073  0.4093
 1280SOL     OW 4431   1.600   1.602   0.389  0.0261 -0.0017 -0.3036
 1280SOL    HW1 4432   1.685   1.562   0.407  0.2304  0.9173  0.8904
 1280SOL    HW2 4433   1.537   1.532   0.409  0.2885  0.5574  3.1903
 1281SOL     OW 4434   6.273   1.018   2.022 -0.3108 -0.2988  0.1272
 1281SOL    HW1 4435   6.246   0.959   2.092  1.0269 -0.2264  0.7263
 1281SOL    HW2 4436   6.216   1.094   2.031  1.0300  0.5364  2.3516
 1282SOL     OW 4437   2.718   0.722   3.059 -0.1945  0.1041  0.4440
 1282SOL    HW1 4438   2.675   0.676   3.131  0.4420 -1.0449  0.1156
 1282SOL    HW2 4439   2.708   0.664   2.984  1.8791 -0.1914  0.3480
 1283SOL     OW 4440   4.825   5.268   3.137  0.1379  0.6283  0.0817
 1283SOL    HW1 4441   4.841   5.352   3.181 -1.0160  0.4998  0.7860
 1283SOL    HW2 4442   4.793   5.292   3.050 -0.8341  0.9505  0.5102
 1284SOL     OW 4443   4.393   1.028   0.489 -0.0801  0.9966 -0.2077
 1284SOL    HW1 4444   4.480   0.994   0.509  0.3864  2.7714  0.9960
 1284SOL    HW2 4445   4.405   1.122   0.478 -1.6086  1.0819 -1.6028
 1285SOL     OW 4446   7.235   3.005   3.448  0.4311 -0.6040 -0.1283
 1285SOL    HW1 4447   7.183   2.936   3.408  1.2184 -1.3190  0.0577
 1285SOL    HW2 4448   7.247   2.977   3.539 -0.4684  0.5028  0.3601
 1286SOL     OW 4449   2.125   0.873   2.150  0.1818 -0.1031  0.2761
 1286SOL    HW1 4450   2.181   0.936   2.104  0.1078 -1.5168 -1.8849
 1286SOL    HW2 4451   2.040   0.916   2.154 -0.0379 -0.2710 -1.7695
 1287SOL     OW 4452   2.087   1.632   0.390 -0.9314 -0.4188  0.5382
 1287SOL    HW1 4453   2.127   1.709   0.349 -0.1559 -0.6705  0.8090
 1287SOL    HW2 4454   2.124   1.558   0.343 -1.8782 -0.6258  0.1044
 1288SOL     OW 4455   5.098   3.870   1.739  0.5530 -0.1642 -0.1183
 1288SOL    HW1 4456   5.087   3.932   1.667 -0.1399  1.0472  0.9994
 1288SOL    HW2 4457   5.188   3.837   1.729  1.1208  1.4005 -0.4501
 1289SOL     OW 4458   1.932   4.538   1.256  0.7248 -0.4360  0.0659
 1289SOL    HW1 4459   2.009   4.588   1.229  1.0593 -1.2642 -0.5765
 1289SOL    HW2 4460   1.965   4.479   1.324  0.3172  0.2401  0.8749
 1290SOL     OW 4461   5.854   5.184   0.410 -0.0364  0.3738  0.2355
 1290SOL    HW1 4462   5.884   5.172   0.320 -1.6220  1.5984 -0.5049
 1290SOL    HW2 4463   5.805   5.266   0.408  0.2993  0.6813  2.3461
 1291SOL     OW 4464   6.550   0.346   3.175 -0.3855  0.1570 -0.1238
 1291SOL    HW1 4465   6.460   0.334   3.204 -0.4628 -1.3076 -0.8986
 1291SOL    HW2 4466   6.542   0.386   3.088 -0.3722 -1.4220 -0.8859
 1292SOL     OW 4467   0.413   1.242   2.036 -0.2245  0.1933 -0.2689
 1292SOL    HW1 4468   0.480   1.201   2.091  0.2771 -0.7880 -1.5448
 1292SOL    HW2 4469   0.352   1.282   2.098  1.3243  0.7832  0.9356
 1293SOL     OW 4470   2.286   3.167   1.708 -0.2143 -0.3253  0.2453
 1293SOL    HW1 4471   2.247   3.081   1.726 -0.4638 -0.3717 -0.4934
 1293SOL    HW2 4472   2.317   3.161   1.618 -0.6169  0.4965  0.0413
 1294SOL     OW 4473   3.173   2.550   1.309  0.2412 -0.3820  0.5958
 1294SOL    HW1 4474   3.152   2.534   1.401  0.1880 -1.8881  0.3569
 1294SOL    HW2 4475   3.172   2.463   1.270  0.7004  0.1961 -0.7416
 1295SOL     OW 4476   0.138   5.262   1.933 -0.3938  0.6273 -0.4672
 1295SOL    HW1 4477   0.224   5.222   1.926  0.3507  1.7819  1.3020
 1295SOL    HW2 4478   0.123   5.271   2.027 -2.1622  1.0455 -0.7472
 1296SOL     OW 4479   0.762   0.779   0.196 -0.3269 -0.2922  0.1101
 1296SOL    HW1 4480   0.688   0.835   0.220  0.8046  0.7433  1.2614
 1296SOL    HW2 4481   0.722   0.693   0.181 -1.5483 -0.3031  2.8208
 1297SOL     OW 4482   3.915   5.156   0.065 -0.1238  0.1341  0.3542
 1297SOL    HW1 4483   3.824   5.185   0.054 -1.1985 -2.7759  0.7958
 1297SOL    HW2 4484   3.950   5.216   0.132 -1.2613  2.1105 -0.7004
 1298SOL     OW 4485   6.852   5.231   2.215  0.7659 -0.5005  0.1577
 1298SOL    HW1 4486   6.854   5.327   2.206 -0.0524 -0.4317  0.6583
 1298SOL    HW2 4487   6.820   5.216   2.303  0.2634 -1.2527 -0.1484
 1299SOL     OW 4488   1.478   3.933   0.622 -0.0495 -0.2013  0.1826
 1299SOL    HW1 4489   1.471   3.991   0.545  2.2860 -0.0829  0.0011
 1299SOL    HW2 4490   1.470   3.845   0.586 -0.2062 -0.1072 -0.0172
 1300SOL     OW 4491   7.176   3.305   3.214 -0.0603 -0.4674  0.1627
 1300SOL    HW1 4492   7.180   3.335   3.305  0.7897 -3.0402  1.0559
 1300SOL    HW2 4493   7.104   3.241   3.214 -0.2530 -0.2600 -1.0600
 1301SOL     OW 4494   1.049   2.382   0.081  0.2306  0.4659  0.3620
 1301SOL    HW1 4495   1.037   2.334  -0.002  1.4952  0.9982 -0.1590
 1301SOL    HW2 4496   0.985   2.453   0.076  0.2723  0.4760 -0.1477
 1302SOL     OW 4497   0.873   5.044   2.210  0.2332 -0.1587  0.5198
 1302SOL    HW1 4498   0.788   5.006   2.228  0.1602 -0.1410  0.2188
 1302SOL    HW2 4499   0.930   5.010   2.279  0.2039 -0.9327  0.1773
 1303SOL     OW 4500   4.787   2.225   1.836 -0.1014 -0.4610 -0.0811
 1303SOL    HW1 4501   4.848   2.264   1.774 -1.3355 -0.5417 -1.4077
 1303SOL    HW2 4502   4.821   2.137   1.852  0.5608 -0.2182 -0.1531
 1304SOL     OW 4503   0.594   3.208   0.782  0.2837 -0.5465 -0.5770
 1304SOL    HW1 4504   0.528   3.276   0.794 -0.8210 -1.5385 -0.8248
 1304SOL    HW2 4505   0.660   3.248   0.726  0.6958  0.9777  0.9154
 1305SOL     OW 4506   3.638   3.363   2.353 -0.5978  0.3729 -0.4840
 1305SOL    HW1 4507   3.560   3.328   2.310 -0.1989 -1.6047  0.3267
 1305SOL    HW2 4508   3.671   3.291   2.407  2.7025  0.5616 -2.0018
 1306SOL     OW 4509   7.303   2.135   0.336 -0.1544  0.2125  0.6744
 1306SOL    HW1 4510   7.365   2.208   0.330 -1.0630  0.9435 -0.2231
 1306SOL    HW2 4511   7.358   2.058   0.352  0.9273  0.9145  0.4633
 1307SOL     OW 4512   1.355   1.709   1.298  0.1832  0.1472  0.2419
 1307SOL    HW1 4513   1.281   1.651   1.282 -0.4306  1.3464 -1.5167
 1307SOL    HW2 4514   1.376   1.697   1.391  0.4951 -3.3077 -0.1568
 1308SOL     OW 4515   7.057   1.952   0.486 -0.0207  0.1327 -0.1065
 1308SOL    HW1 4516   7.094   2.040   0.480 -1.3212  0.7423  0.3147
 1308SOL    HW2 4517   7.062   1.931   0.579  0.0557 -0.1250 -0.1704
 1309SOL     OW 4518   0.889   3.526   2.230  0.5359 -0.1937 -0.3991
 1309SOL    HW1 4519   0.944   3.454   2.200 -2.1594 -1.5794 -2.3918
 1309SOL    HW2 4520   0.849   3.493   2.311  1.8660  0.4953  0.5898
 1310SOL     OW 4521   6.501   2.530   3.348 -0.3299  0.0935 -0.3087
 1310SOL    HW1 4522   6.490   2.538   3.443 -0.7801 -2.0346 -0.1287
 1310SOL    HW2 4523   6.450   2.602   3.311 -3.2699 -1.1632  0.9847
 1311SOL     OW 4524   1.540   4.655   1.191  0.1769 -0.2494 -0.6110
 1311SOL    HW1 4525   1.591   4.607   1.126  0.6747 -1.3055  0.5074
 1311SOL    HW2 4526   1.602   4.673   1.262 -0.8507 -1.1388  0.5687
 1312SOL     OW 4527   2.927   2.725   3.112  0.0972  0.1028  0.6096
 1312SOL    HW1 4528   2.877   2.718   3.030  0.4325 -1.2701  0.5034
 1312SOL    HW2 4529   2.861   2.745   3.178 -0.6087 -1.4972  0.4405
 1313SOL     OW 4530   3.949   4.937   2.579 -0.4979  0.0540 -0.3129
 1313SOL    HW1 4531   3.962   5.026   2.547 -1.5249  0.6190  0.7805
 1313SOL    HW2 4532   3.895   4.947   2.658  0.8559 -1.3746  0.8688
 1314SOL     OW 4533   0.593   5.346   2.406  0.4915  0.0620  0.1686
 1314SOL    HW1 4534   0.665   5.322   2.348  1.2840 -0.5835  1.3701
 1314SOL    HW2 4535   0.557   5.262   2.435 -1.3493  0.3642 -1.0871
 1315SOL     OW 4536   1.912   4.432   3.447 -0.5300  0.0280  0.0887
 1315SOL    HW1 4537   1.978   4.435   3.516 -1.0737 -0.2521  0.6288
 1315SOL    HW2 4538   1.938   4.358   3.392  0.7500  1.1498 -0.8889
 1316SOL     OW 4539   2.642   3.450   3.049  0.0109  0.5295  0.2952
 1316SOL    HW1 4540   2.667   3.539   3.023  0.4152  0.2198 -0.4266
 1316SOL    HW2 4541   2.715   3.420   3.103 -0.6746  1.0519  1.5490
 1317SOL     OW 4542   1.918   0.055   0.873  0.0796  0.2186 -0.2019
 1317SOL    HW1 4543   2.003   0.056   0.828  0.3103  0.2675  0.2307
 1317SOL    HW2 4544   1.888  -0.035   0.864  0.6348 -0.0411  0.4896
 1318SOL     OW 4545   4.659   2.094   1.525  0.2540  0.1258  0.2482
 1318SOL    HW1 4546   4.564   2.104   1.523  0.3222  1.7787  2.0121
 1318SOL    HW2 4547   4.692   2.184   1.516  1.7487 -0.5667 -2.0644
 1319SOL     OW 4548   2.551   1.461   2.537 -0.5661  0.2455 -0.0003
 1319SOL    HW1 4549   2.619   1.481   2.601 -1.3067  0.9491  0.5898
 1319SOL    HW2 4550   2.599   1.430   2.460  0.3538 -0.3466  0.7872
 1320SOL     OW 4551   7.236   0.870   0.814 -0.6195  0.0021 -0.0586
 1320SOL    HW1 4552   7.300   0.881   0.744  0.1554  1.9922  0.8775
 1320SOL    HW2 4553   7.212   0.778   0.811  1.3058 -0.5045 -1.3016
 1321SOL     OW 4554   5.689   2.631   2.175 -0.0978 -0.2101  0.3324
 1321SOL    HW1 4555   5.693   2.543   2.136 -1.5798  0.4316 -1.3903
 1321SOL    HW2 4556   5.597   2.656   2.169  0.4378  1.8527 -0.1263
 1322SOL     OW 4557   3.211   0.630   2.338  0.6488 -0.3289  0.0798
 1322SOL    HW1 4558   3.186   0.697   2.274  0.4820 -0.9588 -0.5359
 1322SOL    HW2 4559   3.242   0.679   2.414 -0.8123  0.4812  0.2036
 1323SOL     OW 4560   6.190   1.908   0.827 -0.0792  0.3064 -0.2293
 1323SOL    HW1 4561   6.111   1.856   0.812 -0.9332  1.5862 -0.3027
 1323SOL    HW2 4562   6.198   1.963   0.750  0.5329  0.6454  0.0702
 1324SOL     OW 4563   6.406   2.531   0.610  0.2449  0.2120 -0.0855
 1324SOL    HW1 4564   6.335   2.510   0.670  0.9075 -1.7219  0.0788
 1324SOL    HW2 4565   6.485   2.524   0.663  0.9156 -2.2680 -1.2492
 1325SOL     OW 4566   1.127   1.148   2.759 -0.3570  0.1866  0.0363
 1325SOL    HW1 4567   1.092   1.134   2.847  0.1740 -0.0501  0.2152
 1325SOL    HW2 4568   1.060   1.115   2.700 -0.4385 -0.2573  0.3732
 1326SOL     OW 4569   2.656   5.204   3.079  0.4623 -0.0083  0.5588
 1326SOL    HW1 4570   2.658   5.109   3.070 -0.6942  0.1639 -3.4585
 1326SOL    HW2 4571   2.574   5.222   3.125 -1.1081 -0.9739 -1.6677
 1327SOL     OW 4572   1.341   4.437   1.500 -0.4610  0.5385  0.0824
 1327SOL    HW1 4573   1.429   4.410   1.477  0.1335  0.1769  2.5005
 1327SOL    HW2 4574   1.302   4.466   1.418  2.0083  1.0500 -0.9883
 1328SOL     OW 4575   6.604   2.301   3.223  0.0709 -0.0238  0.0375
 1328SOL    HW1 4576   6.696   2.287   3.245  0.0676 -0.0726  0.0199
 1328SOL    HW2 4577   6.579   2.379   3.273  0.4567  0.7130 -0.8851
 1329SOL     OW 4578   5.859   1.282   2.887  0.5198  0.0227 -0.0054
 1329SOL    HW1 4579   5.875   1.212   2.950 -0.2412  0.8073  1.0962
 1329SOL    HW2 4580   5.774   1.261   2.848  0.1100  0.5097  0.6021
 1330SOL     OW 4581   2.686   1.523   1.533 -0.6589 -0.2542  0.6480
 1330SOL    HW1 4582   2.775   1.558   1.541 -0.0590 -0.6416 -2.7787
 1330SOL    HW2 4583   2.696   1.438   1.491 -2.6137  0.9576 -2.7999
 1331SOL     OW 4584   5.348   1.239   2.829  0.2077  0.1443 -0.6386
 1331SOL    HW1 4585   5.364   1.316   2.884 -0.5031  0.8469 -1.3958
 1331SOL    HW2 4586   5.256   1.218   2.843  0.0929  0.1571 -1.3418
 1332SOL     OW 4587   6.827   2.592   3.413 -0.1714  0.4184  0.4224
 1332SOL    HW1 4588   6.747   2.609   3.364 -0.5754  2.2646  1.6608
 1332SOL    HW2 4589   6.897   2.597   3.347 -0.6903  2.9540 -0.0285
 1333SOL     OW 4590   2.451   1.427   1.651 -0.1872 -0.3516 -0.1700
 1333SOL    HW1 4591   2.393   1.467   1.587  2.2590  2.0071 -1.0634
 1333SOL    HW2 4592   2.507   1.368   1.600  0.3064 -0.1638  0.1474
 1334SOL     OW 4593   4.645   5.022   2.817 -0.2099  0.3057  0.7026
 1334SOL    HW1 4594   4.708   4.982   2.756  1.2040  2.5956  0.5579
 1334SOL    HW2 4595   4.609   5.097   2.769 -1.7679  0.0810  1.4504
 1335SOL     OW 4596   4.488   4.963   2.552  0.1864 -0.1497 -0.1092
 1335SOL    HW1 4597   4.502   4.915   2.634  1.9077  0.1710 -0.1825
 1335SOL    HW2 4598   4.428   4.907   2.502 -0.5332 -0.5651  1.1694
 1336SOL     OW 4599   1.823   4.795   1.655 -0.2566 -0.2292 -0.5959
 1336SOL    HW1 4600   1.906   4.751   1.634 -0.6170 -1.6079  0.6899
 1336SOL    HW2 4601   1.846   4.859   1.722  0.1171  1.0081 -1.8499
 1337SOL     OW 4602   4.098   4.681   2.551  0.0444 -0.2219  0.7125
 1337SOL    HW1 4603   4.153   4.646   2.622  1.2558 -0.3374 -0.2642
 1337SOL    HW2 4604   4.083   4.772   2.575  1.4550  0.0758  0.5423
 1338SOL     OW 4605   4.187   3.645   2.516 -0.0291 -0.1239  0.1617
 1338SOL    HW1 4606   4.193   3.678   2.606 -1.7505 -0.4322  0.4113
 1338SOL    HW2 4607   4.133   3.566   2.522  0.3391 -0.4912 -1.0639
 1339SOL     OW 4608   6.009   2.589   2.113 -0.1112 -0.0293 -0.0521
 1339SOL    HW1 4609   6.097   2.618   2.089  0.3365 -0.8763  0.5022
 1339SOL    HW2 4610   5.952   2.662   2.090  0.6278  0.2174 -1.1958
 1340SOL     OW 4611   4.854   4.792   0.249  0.8786  0.1717  0.0500
 1340SOL    HW1 4612   4.912   4.777   0.174 -0.9491  1.2161 -1.7003
 1340SOL    HW2 4613   4.787   4.725   0.241  1.8030 -1.0722  2.0922
 1341SOL     OW 4614   2.596   2.711   1.222 -0.2901  0.0185  0.7412
 1341SOL    HW1 4615   2.532   2.782   1.211  0.1164  0.0815 -1.7712
 1341SOL    HW2 4616   2.651   2.740   1.295  1.0758  3.3819 -1.3660
 1342SOL     OW 4617   6.768   2.004   0.602 -0.2512  0.0281  0.1380
 1342SOL    HW1 4618   6.801   1.926   0.557  0.3699 -0.1135  0.8077
 1342SOL    HW2 4619   6.741   1.972   0.688  0.4815  0.6158  0.6054
 1343SOL     OW 4620   7.084   5.295   1.420 -0.7031 -0.0860 -0.4188
 1343SOL    HW1 4621   7.167   5.334   1.448 -0.6744 -0.7883  0.5176
 1343SOL    HW2 4622   7.087   5.298   1.324  0.3364  0.0321 -0.3914
 1344SOL     OW 4623   2.985   1.194   2.708 -0.2693 -0.0071  0.3401
 1344SOL    HW1 4624   2.906   1.146   2.684 -0.0771 -0.0322 -0.2452
 1344SOL    HW2 4625   3.037   1.196   2.628  1.5929 -2.4537  1.3419
 1345SOL     OW 4626   3.187   4.464   0.773 -0.1388 -0.1791  0.4843
 1345SOL    HW1 4627   3.214   4.511   0.694  1.5294 -0.7322  0.6859
 1345SOL    HW2 4628   3.228   4.512   0.845 -0.1123 -0.7644  0.8636
 1346SOL     OW 4629   1.752   4.106   0.185  0.2227  0.0452  0.2412
 1346SOL    HW1 4630   1.657   4.091   0.186 -0.3452  2.5614 -2.4985
 1346SOL    HW2 4631   1.790   4.021   0.208 -2.6665 -1.8169 -1.2199
 1347SOL     OW 4632   1.139   3.500   0.925 -0.2750 -0.3193  0.6745
 1347SOL    HW1 4633   1.229   3.511   0.955 -0.3310 -0.6144  0.9567
 1347SOL    HW2 4634   1.135   3.547   0.842 -0.1645  0.6639  1.2126
 1348SOL     OW 4635   5.817   2.527   1.074  0.1979  0.6218 -0.3535
 1348SOL    HW1 4636   5.754   2.568   1.133 -1.9079 -1.8239 -0.7454
 1348SOL    HW2 4637   5.866   2.467   1.130 -0.4596 -0.2591 -0.7031
 1349SOL     OW 4638   5.738   1.258   1.393  0.1772  0.0178 -0.0780
 1349SOL    HW1 4639   5.723   1.352   1.403  0.0492 -0.0466  0.3669
 1349SOL    HW2 4640   5.765   1.229   1.480 -1.0623 -0.5834  0.1360
 1350SOL     OW 4641   1.281   1.371   2.073  0.1661 -0.3952 -0.0861
 1350SOL    HW1 4642   1.349   1.318   2.116 -0.1898 -1.0889 -0.3637
 1350SOL    HW2 4643   1.239   1.311   2.012  0.4280  0.4772 -1.1556
 1351SOL     OW 4644   6.628   4.143   2.497  0.0958  0.4973  0.3385
 1351SOL    HW1 4645   6.709   4.190   2.480 -0.2738  0.9905 -0.0646
 1351SOL    HW2 4646   6.646   4.091   2.576  1.3148 -0.6195 -0.6391
 1352SOL     OW 4647   0.334   3.744   2.964  0.2692 -0.0500  0.2117
 1352SOL    HW1 4648   0.297   3.827   2.995  0.2162 -0.4746  1.3062
 1352SOL    HW2 4649   0.263   3.681   2.974 -0.8314  0.3143 -3.6281
 1353SOL     OW 4650   3.589   0.556   1.639 -0.1054 -0.2565  0.1867
 1353SOL    HW1 4651   3.515   0.505   1.671 -0.1673  0.1719  0.7454
 1353SOL    HW2 4652   3.638   0.496   1.582 -0.6302 -0.6744  0.1763
 1354SOL     OW 4653   1.626   5.077   2.906 -0.5062 -0.3107 -0.5346
 1354SOL    HW1 4654   1.671   5.106   2.827 -2.2607 -0.8881 -1.8043
 1354SOL    HW2 4655   1.694   5.033   2.957  1.3754  2.6378 -0.2435
 1355SOL     OW 4656   2.511   4.667   0.284 -0.2441 -0.9601 -0.0426
 1355SOL    HW1 4657   2.430   4.713   0.261  0.2720 -0.2992 -0.5735
 1355SOL    HW2 4658   2.485   4.575   0.291 -1.1300 -0.7052  0.2276
 1356SOL     OW 4659   3.250   3.015   0.307 -0.0948  0.4385 -0.4412
 1356SOL    HW1 4660   3.169   3.004   0.258 -0.4080  0.3548  0.0900
 1356SOL    HW2 4661   3.309   3.061   0.246 -0.5070  0.4231 -0.8555
 1357SOL     OW 4662   1.613   5.308   1.157  0.0425 -0.5375  0.2341
 1357SOL    HW1 4663   1.704   5.329   1.179 -0.7817  0.6761  2.8211
 1357SOL    HW2 4664   1.564   5.386   1.180 -1.6434 -0.9978 -1.5562
 1358SOL     OW 4665   3.425   3.040   0.937 -0.2136 -0.2342  0.2880
 1358SOL    HW1 4666   3.352   2.982   0.918  1.4578 -2.0895 -0.8163
 1358SOL    HW2 4667   3.443   3.084   0.854  0.3924 -0.3556  0.3482
 1359SOL     OW 4668   2.411   3.514   3.410 -0.4505 -0.3594 -0.5641
 1359SOL    HW1 4669   2.388   3.493   3.320  0.0122  0.7623 -0.9600
 1359SOL    HW2 4670   2.473   3.446   3.436 -0.0140 -0.2640 -1.3469
 1360SOL     OW 4671   2.438   2.816   0.813 -0.0244  0.2493 -0.2396
 1360SOL    HW1 4672   2.460   2.732   0.772 -0.1411  0.3768 -0.5610
 1360SOL    HW2 4673   2.439   2.879   0.741  3.0170  1.1092  0.3797
 1361SOL     OW 4674   5.827   4.699   3.111  0.6259 -0.0851  0.0214
 1361SOL    HW1 4675   5.840   4.739   3.197  1.4245 -0.2986  0.0027
 1361SOL    HW2 4676   5.807   4.608   3.130 -0.3971  0.1326  0.0283
 1362SOL     OW 4677   3.189   0.128   1.089  0.2117 -0.0307  0.1456
 1362SOL    HW1 4678   3.164   0.061   1.026 -3.0924 -1.0588  2.2947
 1362SOL    HW2 4679   3.254   0.085   1.145  1.0845 -0.0313 -0.8368
 1363SOL     OW 4680   7.041   4.402   2.929  0.8583  0.3583  1.0184
 1363SOL    HW1 4681   6.958   4.447   2.915  0.3244 -0.9716 -0.3059
 1363SOL    HW2 4682   7.097   4.432   2.857  0.0969 -1.9007 -0.6374
 1364SOL     OW 4683   5.037   3.161   2.468  0.0867  0.2433  0.4198
 1364SOL    HW1 4684   5.121   3.125   2.440  0.8572  1.4567  1.0637
 1364SOL    HW2 4685   5.034   3.143   2.562  1.8184  4.0904  1.4233
 1365SOL     OW 4686   0.499   2.057   3.147 -0.3084  0.6988 -0.2069
 1365SOL    HW1 4687   0.507   1.989   3.080  0.2220 -1.0541  1.5631
 1365SOL    HW2 4688   0.559   2.126   3.118  2.1652 -1.2682 -0.1454
 1366SOL     OW 4689   3.668   2.782   2.579 -0.1231 -0.1423  0.5663
 1366SOL    HW1 4690   3.711   2.777   2.494 -0.7034  0.4778  0.2286
 1366SOL    HW2 4691   3.597   2.846   2.567 -2.2855 -2.3897  0.6047
 1367SOL     OW 4692   3.147   0.604   1.206 -0.3464  0.3266  0.2733
 1367SOL    HW1 4693   3.125   0.512   1.221 -0.3702  0.0275 -1.4597
 1367SOL    HW2 4694   3.131   0.646   1.291 -1.8277 -0.9794  0.6918
 1368SOL     OW 4695   4.866   3.370   0.313  0.2637  0.5028  0.1934
 1368SOL    HW1 4696   4.864   3.465   0.322 -1.0161  0.6526 -1.3265
 1368SOL    HW2 4697   4.776   3.346   0.292  0.6316 -1.0246  0.2418
 1369SOL     OW 4698   0.098   1.599   0.425  0.2989 -0.0033  0.1039
 1369SOL    HW1 4699   0.058   1.513   0.439  0.3532 -0.3870 -1.7637
 1369SOL    HW2 4700   0.086   1.615   0.332  0.8341  1.7606  0.3163
 1370SOL     OW 4701   6.799   4.077   3.299  0.0164 -0.1804 -0.3281
 1370SOL    HW1 4702   6.763   4.006   3.351  2.6974 -2.2366 -1.0452
 1370SOL    HW2 4703   6.750   4.155   3.327 -1.2240 -1.8064  2.4318
 1371SOL     OW 4704   7.257   2.530   1.449  0.1792 -0.0741  0.0314
 1371SOL    HW1 4705   7.237   2.612   1.404  0.5987 -0.2654 -0.5120
 1371SOL    HW2 4706   7.173   2.485   1.455 -0.0889  0.4892  0.5244
 1372SOL     OW 4707   3.566   4.686   1.411 -0.2931  0.4370 -0.2222
 1372SOL    HW1 4708   3.572   4.781   1.417  0.4039  0.3565  0.5685
 1372SOL    HW2 4709   3.655   4.655   1.425 -0.8137 -0.4114  1.4263
 1373SOL     OW 4710   3.527   1.412   1.950 -0.4245  0.3975 -0.4052
 1373SOL    HW1 4711   3.537   1.347   1.880 -0.7773  0.4954 -0.5521
 1373SOL    HW2 4712   3.585   1.483   1.924  0.1085  0.0609 -0.1443
 1374SOL     OW 4713   0.509   1.587   0.698 -0.3211 -0.4507  0.5168
 1374SOL    HW1 4714   0.464   1.513   0.738 -0.3247 -1.5276 -1.3492
 1374SOL    HW2 4715   0.439   1.647   0.673 -0.8068 -1.8908 -1.9213
 1375SOL     OW 4716   3.393   5.333   3.142  0.0447 -0.6200 -0.0587
 1375SOL    HW1 4717   3.478   5.375   3.134  0.4239 -1.3398  0.1217
 1375SOL    HW2 4718   3.389   5.304   3.234 -0.4224 -0.5195 -0.0451
 1376SOL     OW 4719   1.429   1.631   2.621 -0.6343  0.5665 -0.2069
 1376SOL    HW1 4720   1.425   1.726   2.613 -0.2215  0.6506  0.4953
 1376SOL    HW2 4721   1.512   1.607   2.578 -0.3806  0.6033  0.2570
 1377SOL     OW 4722   3.232   3.427   2.506 -0.4693  0.6708  0.2013
 1377SOL    HW1 4723   3.291   3.470   2.444  0.4004  1.1170  1.3027
 1377SOL    HW2 4724   3.158   3.487   2.515 -0.5821  0.6177 -0.3792
 1378SOL     OW 4725   4.457   4.933   1.774  0.0541  0.0490 -0.1100
 1378SOL    HW1 4726   4.468   5.028   1.779 -1.4870  0.2190  0.8941
 1378SOL    HW2 4727   4.416   4.910   1.858 -0.4366 -1.3669 -0.7134
 1379SOL     OW 4728   4.862   3.029   0.338  0.1709  0.3963  0.0392
 1379SOL    HW1 4729   4.905   3.076   0.410 -1.5162  1.5694  0.3456
 1379SOL    HW2 4730   4.793   2.978   0.381 -1.3056  1.6490 -0.7510
 1380SOL     OW 4731   4.446   2.753   0.907  0.4090 -0.1224 -0.4644
 1380SOL    HW1 4732   4.417   2.817   0.842  1.1933  0.5192 -0.1974
 1380SOL    HW2 4733   4.533   2.726   0.878  0.4868 -0.3373 -0.0454
 1381SOL     OW 4734   5.620   4.019   3.405 -0.5630  0.0459  0.1763
 1381SOL    HW1 4735   5.618   3.999   3.498  0.4233 -1.1627 -0.0375
 1381SOL    HW2 4736   5.710   4.049   3.389 -0.0179 -1.9352 -0.7743
 1382SOL     OW 4737   1.977   4.967   1.398  0.8279  0.3995 -0.0347
 1382SOL    HW1 4738   1.964   4.981   1.304  0.3599  0.6890  0.0686
 1382SOL    HW2 4739   1.895   4.929   1.427  1.3950 -0.8000  0.0466
 1383SOL     OW 4740   2.613   0.738   0.190  0.3352  0.0968  0.2447
 1383SOL    HW1 4741   2.642   0.791   0.116 -0.0186 -0.6685 -0.4515
 1383SOL    HW2 4742   2.686   0.678   0.207 -0.3562 -1.0713 -0.7844
 1384SOL     OW 4743   6.173   2.727   3.185  0.1644 -0.0282  0.4720
 1384SOL    HW1 4744   6.245   2.774   3.228  0.8748  1.2862 -1.9339
 1384SOL    HW2 4745   6.094   2.770   3.216  0.4629 -0.6171  2.1497
 1385SOL     OW 4746   7.351   2.664   2.954  0.0974 -0.0351  0.3011
 1385SOL    HW1 4747   7.259   2.650   2.976 -0.1826 -0.2606 -0.9210
 1385SOL    HW2 4748   7.399   2.637   3.032 -0.8536 -0.3017  0.8081
 1386SOL     OW 4749   0.653   1.428   2.052  0.8887  0.2127 -0.2508
 1386SOL    HW1 4750   0.621   1.402   2.138 -0.7115  0.1859 -0.8287
 1386SOL    HW2 4751   0.679   1.519   2.062 -1.2297  0.8541 -0.2077
 1387SOL     OW 4752   2.731   1.104   0.101  0.7159  0.0518 -0.1558
 1387SOL    HW1 4753   2.786   1.040   0.145  1.6280  0.8422 -0.1138
 1387SOL    HW2 4754   2.789   1.144   0.035 -0.4432 -0.7039 -1.6992
 1388SOL     OW 4755   3.620   0.215   1.482 -0.3026  0.6529  0.8744
 1388SOL    HW1 4756   3.693   0.253   1.531  1.5731 -0.0612 -1.1977
 1388SOL    HW2 4757   3.647   0.220   1.391 -1.0386 -3.2252  0.2796
 1389SOL     OW 4758   1.170   5.257   2.644  0.2214 -0.0383  0.7137
 1389SOL    HW1 4759   1.239   5.230   2.583 -0.4306 -0.8973  0.3428
 1389SOL    HW2 4760   1.145   5.344   2.614  0.1341 -0.3196 -0.0578
 1390SOL     OW 4761   5.417   0.161   2.300  0.2453  0.2251 -0.9434
 1390SOL    HW1 4762   5.392   0.101   2.230  0.2396 -0.3661 -0.4488
 1390SOL    HW2 4763   5.485   0.217   2.262  0.8584 -0.6514 -1.1734
 1391SOL     OW 4764   6.235   4.440   3.370 -0.4902 -0.1508  0.6753
 1391SOL    HW1 4765   6.258   4.351   3.341  0.1697 -0.3545  1.7820
 1391SOL    HW2 4766   6.291   4.456   3.445 -1.0085  1.0006  0.8365
 1392SOL     OW 4767   2.193   4.866   0.031  0.6928  0.5840 -0.2264
 1392SOL    HW1 4768   2.133   4.852  -0.043  0.6464  1.4300 -0.3510
 1392SOL    HW2 4769   2.278   4.882  -0.011  1.3001 -1.7398 -0.0435
 1393SOL     OW 4770   0.951   4.373   0.741  0.4839  0.6145  0.5894
 1393SOL    HW1 4771   0.988   4.316   0.807 -0.4548 -1.7152 -0.7766
 1393SOL    HW2 4772   0.876   4.325   0.706 -1.2193  3.2654  0.2434
 1394SOL     OW 4773   3.440   3.327   3.120  0.1251  0.3416  0.4573
 1394SOL    HW1 4774   3.439   3.374   3.204  0.3580  0.6326  0.3019
 1394SOL    HW2 4775   3.350   3.298   3.107  0.0049  0.6307  0.6255
 1395SOL     OW 4776   3.782   1.346   2.961  0.2372 -0.1518  0.6794
 1395SOL    HW1 4777   3.694   1.379   2.980  0.3081 -0.0553  0.8446
 1395SOL    HW2 4778   3.769   1.278   2.895 -0.1690 -1.3958  2.0008
 1396SOL     OW 4779   4.433   0.721   1.838 -0.1449  0.2455  0.0480
 1396SOL    HW1 4780   4.453   0.642   1.889 -0.8735 -0.8622 -1.3090
 1396SOL    HW2 4781   4.408   0.786   1.903  0.5228 -0.6158  1.2121
 1397SOL     OW 4782   5.396   4.059   1.709 -0.4461 -0.4030 -0.1082
 1397SOL    HW1 4783   5.425   3.975   1.674  1.5068 -0.2061  0.9049
 1397SOL    HW2 4784   5.378   4.113   1.632  0.0290 -1.1768 -0.7715
 1398SOL     OW 4785   2.185   4.632   2.741  0.4429  0.0177  0.2751
 1398SOL    HW1 4786   2.208   4.598   2.827 -3.3930 -2.9710  0.3894
 1398SOL    HW2 4787   2.231   4.574   2.679  1.0744  0.4461  0.3406
 1399SOL     OW 4788   7.337   2.952   3.198  0.3526  0.5184 -0.3559
 1399SOL    HW1 4789   7.349   2.858   3.213  0.4083  0.5520 -0.1934
 1399SOL    HW2 4790   7.249   2.971   3.231  0.8021  0.7629  0.7288
 1400SOL     OW 4791   4.255   4.583   1.452 -0.5544  0.0157 -0.6732
 1400SOL    HW1 4792   4.175   4.585   1.400 -1.1442 -1.9902  0.0846
 1400SOL    HW2 4793   4.230   4.619   1.537 -0.2828  0.6923 -0.8719
 1401SOL     OW 4794   5.788   4.641   2.098 -0.2343 -0.0931  0.5849
 1401SOL    HW1 4795   5.765   4.665   2.188  0.6120 -0.2460  0.8418
 1401SOL    HW2 4796   5.870   4.594   2.105 -0.0867  0.0119 -0.2885
 1402SOL     OW 4797   0.909   5.218   2.549 -0.1875  0.2007 -0.4162
 1402SOL    HW1 4798   0.878   5.308   2.556  1.6432  0.8595 -0.3363
 1402SOL    HW2 4799   0.991   5.216   2.599 -0.8653 -1.8696  0.7469
 1403SOL     OW 4800   7.015   4.271   1.135 -0.0223  0.6056 -0.1866
 1403SOL    HW1 4801   7.003   4.187   1.091 -2.8688  0.8726 -0.1248
 1403SOL    HW2 4802   7.109   4.289   1.127  0.6158 -2.3419 -0.5613
 1404SOL     OW 4803   5.993   0.216   2.291  0.5389  0.4228 -0.5279
 1404SOL    HW1 4804   6.012   0.163   2.214 -1.5934  0.8802 -1.4337
 1404SOL    HW2 4805   6.020   0.304   2.267  3.1844  0.0402  0.6305
 1405SOL     OW 4806   2.972   0.874   2.760  0.5534  0.0129  0.1499
 1405SOL    HW1 4807   2.912   0.912   2.696  2.0676  1.6943 -0.3316
 1405SOL    HW2 4808   2.957   0.779   2.753  0.7409  0.1177 -2.7467
 1406SOL     OW 4809   5.147   1.561   3.102  0.4398 -0.3721 -0.0762
 1406SOL    HW1 4810   5.095   1.515   3.168  0.1149  0.1355  0.0265
 1406SOL    HW2 4811   5.084   1.587   3.035  0.6662 -0.3360 -0.2764
 1407SOL     OW 4812   4.178   2.645   0.260 -0.3536  0.0004 -0.1252
 1407SOL    HW1 4813   4.105   2.678   0.208 -0.4839 -0.1277 -0.0230
 1407SOL    HW2 4814   4.245   2.713   0.253 -0.0536 -0.3837 -1.1328
 1408SOL     OW 4815   2.875   4.390   1.779  0.2315  0.0551  0.2092
 1408SOL    HW1 4816   2.893   4.477   1.743 -0.2781  0.5333  1.0762
 1408SOL    HW2 4817   2.907   4.329   1.712  2.8560  0.8446  0.6286
 1409SOL     OW 4818   3.347   0.598   0.506 -0.7208  0.0903  0.0102
 1409SOL    HW1 4819   3.423   0.588   0.448 -2.0177 -0.0003 -1.7521
 1409SOL    HW2 4820   3.385   0.613   0.592  1.3145 -1.6729 -0.4824
 1410SOL     OW 4821   0.938   4.629   1.883  0.2484  0.1599 -0.7069
 1410SOL    HW1 4822   1.010   4.685   1.912  1.9202 -2.2428  0.0735
 1410SOL    HW2 4823   0.912   4.580   1.961 -1.0356 -0.3179 -1.3924
 1411SOL     OW 4824   6.268   2.957   2.632  0.3741 -0.2625 -0.1749
 1411SOL    HW1 4825   6.362   2.945   2.624  0.1618 -1.8636 -0.6170
 1411SOL    HW2 4826   6.235   2.953   2.542  0.0127  1.7347 -0.1667
 1412SOL     OW 4827   3.518   2.197   1.257  0.6439 -1.3290 -0.4219
 1412SOL    HW1 4828   3.507   2.208   1.163 -1.9456 -1.9745 -0.2815
 1412SOL    HW2 4829   3.534   2.286   1.290  0.0105 -0.8671 -1.3159
 1413SOL     OW 4830   7.306   1.013   0.171  0.1295 -0.6908 -0.0666
 1413SOL    HW1 4831   7.356   1.091   0.195  0.2167 -0.9562  0.6504
 1413SOL    HW2 4832   7.215   1.037   0.189  0.1307 -0.6623 -0.0975
 1414SOL     OW 4833   6.365   3.143   0.922  0.9997 -0.3073  0.2862
 1414SOL    HW1 4834   6.382   3.060   0.878  1.8696 -0.1577  0.3163
 1414SOL    HW2 4835   6.294   3.183   0.872 -1.0719 -2.0831  1.6360
 1415SOL     OW 4836   2.084   3.390   0.181  0.5854 -0.5235  0.4143
 1415SOL    HW1 4837   2.025   3.323   0.146 -0.1772 -0.7064  1.9537
 1415SOL    HW2 4838   2.152   3.340   0.226  0.1699 -0.2982  1.3231
 1416SOL     OW 4839   2.123   1.367   0.804  0.1022 -0.0523 -0.6338
 1416SOL    HW1 4840   2.099   1.456   0.781  0.4534  0.0515 -0.6025
 1416SOL    HW2 4841   2.052   1.313   0.768  0.7641  0.0789 -2.2336
 1417SOL     OW 4842   4.921   3.950   0.155 -0.3285 -0.1181  0.4020
 1417SOL    HW1 4843   4.950   4.033   0.192 -0.1280  0.2082 -0.4733
 1417SOL    HW2 4844   4.836   3.934   0.197  0.5766 -0.5460  2.1708
 1418SOL     OW 4845   5.093   2.218   2.366 -0.1971  0.2531  0.5279
 1418SOL    HW1 4846   5.101   2.169   2.448  0.4957  0.9859  0.9098
 1418SOL    HW2 4847   5.039   2.162   2.310  0.2986 -0.7947  1.0677
 1419SOL     OW 4848   5.462   0.578   2.589 -0.0526  0.2951  0.6820
 1419SOL    HW1 4849   5.431   0.643   2.652  1.5194  0.8269  0.9528
 1419SOL    HW2 4850   5.521   0.626   2.532  2.2730 -1.1050  1.7340
 1420SOL     OW 4851   5.080   5.294   1.208 -0.3041  0.1161  0.3653
 1420SOL    HW1 4852   5.000   5.306   1.259  0.7477  1.4514  1.7945
 1420SOL    HW2 4853   5.102   5.382   1.176  0.2743 -0.3366 -0.5440
 1421SOL     OW 4854   2.688   0.442   2.416  0.5607 -0.0173  0.3166
 1421SOL    HW1 4855   2.708   0.391   2.338 -1.9458  0.3329 -0.6545
 1421SOL    HW2 4856   2.605   0.406   2.448 -0.9022  2.8135  0.0499
 1422SOL     OW 4857   1.719   1.366   0.712 -0.5579 -0.0960  0.3463
 1422SOL    HW1 4858   1.753   1.413   0.636 -1.9801  2.9598  1.4498
 1422SOL    HW2 4859   1.778   1.389   0.783 -0.8519 -0.6298  0.7689
 1423SOL     OW 4860   2.497   3.979   1.106  0.4876 -0.0417  0.1089
 1423SOL    HW1 4861   2.581   3.987   1.061  1.5980 -0.0447  2.0702
 1423SOL    HW2 4862   2.480   4.067   1.140  0.4197 -0.3645  0.9296
 1424SOL     OW 4863   7.267   3.208   0.246 -0.1295 -0.1113  0.2428
 1424SOL    HW1 4864   7.332   3.141   0.226  0.4644  0.7875 -1.0096
 1424SOL    HW2 4865   7.304   3.256   0.320 -0.1268 -0.5694  0.5473
 1425SOL     OW 4866   1.243   2.667   3.293  0.4630  0.0132 -0.1178
 1425SOL    HW1 4867   1.171   2.629   3.242  0.5530  1.3229 -1.2668
 1425SOL    HW2 4868   1.298   2.710   3.228  0.6488  1.6491  1.0612
 1426SOL     OW 4869   5.320   4.011   2.192 -0.1145  0.1284  0.2846
 1426SOL    HW1 4870   5.373   4.021   2.271 -2.8149  1.8365  2.0580
 1426SOL    HW2 4871   5.327   4.095   2.147 -1.8719  0.7053  1.0037
 1427SOL     OW 4872   7.073   0.935   2.639 -0.6427 -0.3068 -0.1211
 1427SOL    HW1 4873   6.995   0.886   2.663  0.1637 -0.6765  1.9260
 1427SOL    HW2 4874   7.045   1.027   2.637 -1.1533 -0.4487  0.5138
 1428SOL     OW 4875   6.095   1.270   0.544  0.9898  0.3769 -0.1201
 1428SOL    HW1 4876   6.175   1.255   0.494  1.6211  0.0832  0.9377
 1428SOL    HW2 4877   6.094   1.201   0.610 -0.6494 -0.2093 -0.7033
 1429SOL     OW 4878   0.727   4.724   1.733 -0.6080  0.2059 -0.3443
 1429SOL    HW1 4879   0.761   4.684   1.653  0.2407 -0.1027  0.1496
 1429SOL    HW2 4880   0.794   4.706   1.799 -1.2732  0.4822  0.4308
 1430SOL     OW 4881   6.551   0.218   1.939  0.0778 -0.4070 -0.0825
 1430SOL    HW1 4882   6.610   0.157   1.894  0.1471 -0.6028  0.2705
 1430SOL    HW2 4883   6.467   0.171   1.942 -0.2200  0.0391 -0.9608
 1431SOL     OW 4884   3.411   0.773   2.507 -0.6411  0.2926 -0.4686
 1431SOL    HW1 4885   3.414   0.821   2.590  0.8889  1.3636 -1.0938
 1431SOL    HW2 4886   3.490   0.801   2.460  0.4119 -2.8831 -0.8672
 1432SOL     OW 4887   5.828   0.119   1.363  0.0341  0.0305 -0.1235
 1432SOL    HW1 4888   5.772   0.177   1.311 -2.0029 -1.1557  0.5900
 1432SOL    HW2 4889   5.787   0.033   1.355  3.0026 -1.4173 -1.2282
 1433SOL     OW 4890   6.261   4.961   0.805  0.2586  0.3715  0.2640
 1433SOL    HW1 4891   6.187   4.907   0.779  1.4928 -1.0639 -0.4074
 1433SOL    HW2 4892   6.221   5.039   0.844 -1.6038  0.2485 -1.2371
 1434SOL     OW 4893   4.935   1.056   1.530  0.1667  0.0585 -0.1970
 1434SOL    HW1 4894   4.895   1.135   1.566  1.1660  1.0679 -1.2206
 1434SOL    HW2 4895   5.021   1.052   1.571  0.0008 -0.6910  0.0885
 1435SOL     OW 4896   2.944   2.955   0.492  0.3019 -0.2583 -0.0737
 1435SOL    HW1 4897   2.979   2.906   0.418 -0.1119  0.6745 -0.9173
 1435SOL    HW2 4898   2.904   3.033   0.453 -1.9186 -0.8171  0.9138
 1436SOL     OW 4899   1.583   1.571   3.083  0.2154  0.2337  0.1988
 1436SOL    HW1 4900   1.530   1.650   3.088 -0.4866 -0.2792  1.3456
 1436SOL    HW2 4901   1.576   1.532   3.170  0.3508 -1.2089 -0.4094
 1437SOL     OW 4902   5.576   3.790   3.191 -0.0244 -0.0210  0.6777
 1437SOL    HW1 4903   5.566   3.857   3.259 -1.8657 -0.0700  0.5097
 1437SOL    HW2 4904   5.529   3.714   3.225  1.3845 -0.9960  0.5237
 1438SOL     OW 4905   1.042   4.608   2.753  0.0497  0.2076  0.2517
 1438SOL    HW1 4906   1.033   4.610   2.848  0.4253 -0.1169  0.2989
 1438SOL    HW2 4907   1.097   4.531   2.736 -1.7853 -1.0262 -0.3858
 1439SOL     OW 4908   0.880   3.626   0.577  0.3360 -0.0478 -0.4202
 1439SOL    HW1 4909   0.965   3.669   0.566 -0.0102  0.4553 -1.1689
 1439SOL    HW2 4910   0.829   3.655   0.502  0.2021 -2.0239 -1.1436
 1440SOL     OW 4911   2.051   1.148   1.706 -0.6165 -0.3474  0.4665
 1440SOL    HW1 4912   1.975   1.174   1.654 -2.5098  0.1118  3.2342
 1440SOL    HW2 4913   2.017   1.083   1.768  1.7018 -1.5373  0.6271
 1441SOL     OW 4914   0.219   4.606   2.751  0.6212  0.0438 -0.0570
 1441SOL    HW1 4915   0.304   4.649   2.746  0.3009  0.7254  0.2602
 1441SOL    HW2 4916   0.228   4.545   2.825 -0.1857  2.5283  2.2621
 1442SOL     OW 4917   2.689   4.815   0.136  0.5297 -0.5434 -0.2311
 1442SOL    HW1 4918   2.621   4.750   0.156  0.5110 -0.5614 -0.3505
 1442SOL    HW2 4919   2.764   4.764   0.108 -0.2383 -0.4672 -2.6490
 1443SOL     OW 4920   4.518   4.744   1.602 -0.3666 -0.4294  0.2135
 1443SOL    HW1 4921   4.506   4.787   1.687 -0.0125 -0.0620  0.0797
 1443SOL    HW2 4922   4.444   4.683   1.595 -1.1720  0.5429  0.1600
 1444SOL     OW 4923   0.953   2.072   0.965 -0.1342 -0.3169 -0.3300
 1444SOL    HW1 4924   1.006   2.111   1.035 -2.1818  1.9853  0.0705
 1444SOL    HW2 4925   0.912   1.996   1.007  0.2999 -0.2020  0.3242
 1445SOL     OW 4926   3.722   3.628   0.894  0.6080 -0.2210 -0.2504
 1445SOL    HW1 4927   3.670   3.709   0.893  1.9371  0.6474 -0.5836
 1445SOL    HW2 4928   3.712   3.592   0.806  1.0919  0.2886 -0.5156
 1446SOL     OW 4929   0.285   1.658   2.858 -0.2418  0.2642 -0.0700
 1446SOL    HW1 4930   0.212   1.617   2.813  0.2584 -2.7785  1.6475
 1446SOL    HW2 4931   0.357   1.595   2.850  1.1274  1.5613  1.2823
 1447SOL     OW 4932   3.254   1.968   0.367  0.4454 -0.1918 -0.0042
 1447SOL    HW1 4933   3.218   2.043   0.320  0.1015  1.0787  2.1470
 1447SOL    HW2 4934   3.348   1.975   0.356  0.3752  0.1222 -0.4226
 1448SOL     OW 4935   6.243   4.067   0.023  0.1618  0.1729  0.0896
 1448SOL    HW1 4936   6.256   3.985  -0.025 -0.4292 -0.9718  1.8176
 1448SOL    HW2 4937   6.209   4.127  -0.044  2.4302 -0.3477 -1.6678
 1449SOL     OW 4938   5.806   1.994   2.671 -0.4179  0.2813  0.9643
 1449SOL    HW1 4939   5.759   2.077   2.672  0.7492  0.9745  2.1938
 1449SOL    HW2 4940   5.815   1.971   2.763 -1.0461 -1.4215  0.6281
 1450SOL     OW 4941   1.316   2.345   1.510  0.4622 -0.0080 -0.3473
 1450SOL    HW1 4942   1.390   2.300   1.551 -1.4444 -3.2315 -0.0061
 1450SOL    HW2 4943   1.296   2.292   1.433 -1.1233  1.0839 -0.7294
 1451SOL     OW 4944   4.531   2.569   0.403  0.0613  0.1003  0.7966
 1451SOL    HW1 4945   4.625   2.573   0.387 -0.0398 -2.1086 -0.8596
 1451SOL    HW2 4946   4.493   2.630   0.339  0.3264  0.0157  0.5552
 1452SOL     OW 4947   5.684   0.056   2.521 -0.3882  0.6671  0.1228
 1452SOL    HW1 4948   5.590   0.074   2.533 -1.0670 -0.9400 -2.0469
 1452SOL    HW2 4949   5.686  -0.035   2.492  1.9726  0.3692  1.0520
 1453SOL     OW 4950   6.519   4.122   1.608  0.1475 -0.0850  0.3206
 1453SOL    HW1 4951   6.530   4.161   1.695  0.1333 -1.2663  0.8664
 1453SOL    HW2 4952   6.603   4.137   1.565  0.1418  0.5425  0.5157
 1454SOL     OW 4953   7.066   4.079   0.106  0.8356  0.2082  0.4724
 1454SOL    HW1 4954   7.005   4.005   0.109  0.9158  0.0900 -0.4409
 1454SOL    HW2 4955   7.074   4.107   0.197  0.1602 -0.3802  0.7266
 1455SOL     OW 4956   2.470   1.165   2.553 -0.6455  0.4507  0.3660
 1455SOL    HW1 4957   2.396   1.105   2.542 -0.4195  0.2015  0.1653
 1455SOL    HW2 4958   2.501   1.181   2.464 -1.3165  1.6581  0.3289
 1456SOL     OW 4959   4.569   1.301   0.318 -0.7341  0.1755 -1.0262
 1456SOL    HW1 4960   4.488   1.276   0.273 -1.8219 -1.8572  1.8005
 1456SOL    HW2 4961   4.625   1.224   0.311 -0.2919  0.4226 -0.2706
 1457SOL     OW 4962   7.154   0.618   0.863 -0.4956  0.0594  0.2058
 1457SOL    HW1 4963   7.155   0.528   0.829 -2.4621  0.6517 -1.6652
 1457SOL    HW2 4964   7.129   0.608   0.955  0.0949 -1.3307  0.2470
 1458SOL     OW 4965   5.101   2.506   3.259 -0.0980 -0.3959  0.2079
 1458SOL    HW1 4966   5.078   2.483   3.349 -1.6922 -0.7260 -0.2524
 1458SOL    HW2 4967   5.040   2.576   3.236  0.9724  0.4098 -0.3000
 1459SOL     OW 4968   2.316   3.724   1.330 -0.5132 -0.4811  0.2863
 1459SOL    HW1 4969   2.243   3.771   1.290 -0.7099 -0.9958  0.0373
 1459SOL    HW2 4970   2.302   3.734   1.424 -1.1522 -0.9612  0.2450
 1460SOL     OW 4971   2.371   3.739   1.603 -0.2178 -0.7129  0.1586
 1460SOL    HW1 4972   2.444   3.689   1.640  1.5963  2.4645  1.2241
 1460SOL    HW2 4973   2.334   3.786   1.677  0.5451  2.2566 -1.1869
 1461SOL     OW 4974   1.410   0.414   3.021 -0.1833 -0.1706 -0.0437
 1461SOL    HW1 4975   1.505   0.421   3.027 -0.2203  0.2508  0.0631
 1461SOL    HW2 4976   1.383   0.372   3.103 -0.1653  0.4806  0.3019
 1462SOL     OW 4977   6.497   4.212   2.256  0.2065 -0.3406 -0.4596
 1462SOL    HW1 4978   6.550   4.288   2.233 -1.4466  0.5327 -1.5983
 1462SOL    HW2 4979   6.541   4.174   2.332  1.2289  1.5956 -0.0197
 1463SOL     OW 4980   3.733   0.232   1.206  0.0333 -0.6683  0.4689
 1463SOL    HW1 4981   3.667   0.200   1.145 -0.4912  0.2627  0.5331
 1463SOL    HW2 4982   3.797   0.277   1.151 -0.8035  0.7845  0.6449
 1464SOL     OW 4983   6.788   3.929   0.675 -0.0941  0.3051  0.2738
 1464SOL    HW1 4984   6.734   3.862   0.716 -0.0611 -0.0857 -0.3094
 1464SOL    HW2 4985   6.878   3.900   0.686 -0.1446 -0.9889 -1.9985
 1465SOL     OW 4986   7.000   0.685   0.230  0.3003 -0.4509 -1.0234
 1465SOL    HW1 4987   6.920   0.673   0.282  0.0128 -1.8119 -1.7194
 1465SOL    HW2 4988   6.970   0.721   0.147  0.6183  0.5978 -0.6922
 1466SOL     OW 4989   3.830   0.367   1.577 -0.3805  0.3276 -0.1246
 1466SOL    HW1 4990   3.851   0.459   1.561  0.8769  0.2098  0.7810
 1466SOL    HW2 4991   3.894   0.319   1.525 -2.9941 -0.1479 -3.2611
 1467SOL     OW 4992   3.881   0.541   3.380  0.2147  0.4938  0.1614
 1467SOL    HW1 4993   3.791   0.573   3.367 -0.5837 -0.0600  3.3531
 1467SOL    HW2 4994   3.927   0.614   3.421  1.0488  0.5084 -0.7594
 1468SOL     OW 4995   5.000   4.356   1.783 -0.1627 -0.2891 -0.0531
 1468SOL    HW1 4996   4.925   4.331   1.836 -0.2364 -0.3538 -0.1886
 1468SOL    HW2 4997   5.049   4.417   1.838 -1.6508  1.7868 -0.9054
 1469SOL     OW 4998   5.660   2.804   3.426  0.5268  0.4134  0.0463
 1469SOL    HW1 4999   5.670   2.728   3.483 -0.3447  0.4191  0.2160
 1469SOL    HW2 5000   5.602   2.775   3.356  2.1561  0.1862 -1.2721
 1470SOL     OW 5001   3.444   4.557   2.230 -0.0720 -0.0265 -0.5540
 1470SOL    HW1 5002   3.427   4.486   2.291  0.0085 -0.0086 -0.5105
 1470SOL    HW2 5003   3.539   4.564   2.228 -0.1024  1.4523  1.0340
 1471SOL     OW 5004   1.578   2.876   3.386  0.4850  0.1146 -0.8515
 1471SOL    HW1 5005   1.616   2.924   3.459 -1.1296 -0.3890  0.3841
 1471SOL    HW2 5006   1.652   2.833   3.344  1.2843 -1.3103  1.7864
 1472SOL     OW 5007   0.468   0.981   3.244  0.2889 -0.3996  0.3018
 1472SOL    HW1 5008   0.389   1.033   3.257  0.2023 -0.0644 -1.3530
 1472SOL    HW2 5009   0.436   0.893   3.226  0.4251 -1.0107  2.7286
 1473SOL     OW 5010   5.789   2.300   1.762 -0.3465 -0.0907  0.1340
 1473SOL    HW1 5011   5.870   2.330   1.803 -0.3534 -1.1990  1.0309
 1473SOL    HW2 5012   5.808   2.297   1.669  0.8094 -0.7835  0.3730
 1474SOL     OW 5013   6.149   1.909   2.899  0.7837 -0.1994 -0.0563
 1474SOL    HW1 5014   6.223   1.893   2.957  2.9586  1.0685 -2.2697
 1474SOL    HW2 5015   6.157   2.001   2.873  0.7973 -0.9873 -3.3292
 1475SOL     OW 5016   3.565   1.404   0.323 -0.0437  0.0868 -0.8161
 1475SOL    HW1 5017   3.597   1.494   0.329 -0.1377  0.0159  2.1772
 1475SOL    HW2 5018   3.470   1.411   0.335  0.1911 -0.4832  2.3427
 1476SOL     OW 5019   6.712   5.255   2.861  0.3231 -0.2577 -0.0289
 1476SOL    HW1 5020   6.667   5.170   2.864 -1.0360  0.1346 -3.7646
 1476SOL    HW2 5021   6.798   5.235   2.823 -1.1603  0.1655 -4.1149
 1477SOL     OW 5022   4.002   3.140   2.182 -0.5640  0.3212  0.0418
 1477SOL    HW1 5023   3.950   3.217   2.207 -0.0103  1.2108 -1.4146
 1477SOL    HW2 5024   4.026   3.156   2.091  1.0915 -0.7275  0.2548
 1478SOL     OW 5025   6.301   4.603   0.703 -0.2200 -0.2064 -0.0842
 1478SOL    HW1 5026   6.251   4.624   0.781  0.4756  2.4961 -0.2632
 1478SOL    HW2 5027   6.247   4.635   0.631 -0.4867 -1.9297 -0.6971
 1479SOL     OW 5028   2.050   0.615   2.449  0.6229 -0.4428  0.1961
 1479SOL    HW1 5029   2.115   0.620   2.519 -0.8817 -1.0684  1.6939
 1479SOL    HW2 5030   1.992   0.690   2.464  2.9542  2.3997 -3.3365
 1480SOL     OW 5031   5.861   1.747   0.145  0.1771 -0.3989 -0.5111
 1480SOL    HW1 5032   5.780   1.765   0.193  0.3723 -0.7964 -0.0161
 1480SOL    HW2 5033   5.900   1.673   0.191  1.2160  0.2776 -0.2539
 1481SOL     OW 5034   3.538   0.652   0.712 -0.8698 -0.2286  0.2723
 1481SOL    HW1 5035   3.563   0.610   0.795 -1.6118  0.8117  1.0584
 1481SOL    HW2 5036   3.508   0.739   0.738  0.7728  0.8800 -1.3220
 1482SOL     OW 5037   3.262   5.298   2.246 -0.2297 -0.1525  0.1600
 1482SOL    HW1 5038   3.176   5.258   2.233 -0.8668  1.4555 -0.8814
 1482SOL    HW2 5039   3.247   5.366   2.311  0.3249 -0.0618  0.1953
 1483SOL     OW 5040   0.824   5.337   3.223 -0.1959  0.2756  0.3527
 1483SOL    HW1 5041   0.835   5.429   3.200  0.8070  0.2246  0.6083
 1483SOL    HW2 5042   0.908   5.310   3.260 -0.5060 -0.7171  0.3830
 1484SOL     OW 5043   0.832   2.355   0.970  0.0686 -0.4827  0.0752
 1484SOL    HW1 5044   0.877   2.271   0.955 -0.0942 -0.5379 -0.1129
 1484SOL    HW2 5045   0.758   2.353   0.909  1.7501  1.0930 -2.1766
 1485SOL     OW 5046   0.986   4.987   2.833  0.3583  0.0701 -0.4228
 1485SOL    HW1 5047   0.904   5.015   2.793  0.1519  1.5368  0.9417
 1485SOL    HW2 5048   0.961   4.922   2.898  0.1193  1.3573  0.8020
 1486SOL     OW 5049   6.218   2.895   1.158  0.1651  0.0219 -0.1909
 1486SOL    HW1 5050   6.195   2.824   1.098 -0.5508 -1.1251  1.3414
 1486SOL    HW2 5051   6.134   2.934   1.183  0.4612  0.5870 -0.0651
 1487SOL     OW 5052   2.253   4.819   2.041  0.0375  0.2718  0.2014
 1487SOL    HW1 5053   2.237   4.735   1.999 -1.0977  0.5702  0.0033
 1487SOL    HW2 5054   2.303   4.797   2.119 -1.5273 -0.7831  0.9700
 1488SOL     OW 5055   4.393   0.899   2.058 -0.2805 -0.1040 -0.0137
 1488SOL    HW1 5056   4.432   0.986   2.044  1.0484 -0.4822  1.0222
 1488SOL    HW2 5057   4.305   0.917   2.091 -0.7485  0.8088 -1.6865
 1489SOL     OW 5058   2.243   1.807   0.241  0.3419 -0.3804  0.2358
 1489SOL    HW1 5059   2.264   1.792   0.149  1.0957 -1.0897  0.5180
 1489SOL    HW2 5060   2.256   1.901   0.254 -1.5174  0.0611 -0.8138
 1490SOL     OW 5061   0.641   3.997   2.248  0.0641  0.6632  0.4928
 1490SOL    HW1 5062   0.670   3.916   2.205 -0.7413 -1.2173  3.2331
 1490SOL    HW2 5063   0.547   3.985   2.260  0.0872  1.5693  1.7757
 1491SOL     OW 5064   4.493   1.275   1.761 -0.1649 -0.1054 -0.4188
 1491SOL    HW1 5065   4.559   1.321   1.813 -0.5959 -0.5006  0.5100
 1491SOL    HW2 5066   4.446   1.344   1.714  2.0775  0.0940 -2.5903
 1492SOL     OW 5067   6.085   3.205   1.428 -0.2127 -0.5644 -0.0262
 1492SOL    HW1 5068   6.039   3.277   1.384 -1.1612 -0.9387  0.3153
 1492SOL    HW2 5069   6.025   3.131   1.422 -0.2714 -0.7007  1.6484
 1493SOL     OW 5070   6.037   3.405   0.910  0.4287 -0.2937  0.1860
 1493SOL    HW1 5071   6.012   3.449   0.829 -1.5775  0.8449  1.3582
 1493SOL    HW2 5072   5.958   3.405   0.963  1.9532 -0.0115  2.6133
 1494SOL     OW 5073   4.366   4.978   1.068  0.3553 -0.9506  0.3072
 1494SOL    HW1 5074   4.356   4.886   1.043  1.6658 -0.7320 -1.1072
 1494SOL    HW2 5075   4.328   5.027   0.995  0.5201 -0.3417  0.6273
 1495SOL     OW 5076   2.534   0.952   1.805  0.0375  0.4188 -0.0308
 1495SOL    HW1 5077   2.446   0.954   1.769 -0.0178  1.7214  0.1360
 1495SOL    HW2 5078   2.592   0.957   1.729 -0.0421  0.4223 -0.0910
 1496SOL     OW 5079   6.084   3.993   1.012  0.3746 -0.1651 -0.1995
 1496SOL    HW1 5080   6.073   3.907   0.973  1.9800  0.2070 -1.6028
 1496SOL    HW2 5081   6.162   4.029   0.970 -1.1856  2.6674 -0.9203
 1497SOL     OW 5082   3.459   4.641   3.254  0.1083 -0.0438 -0.7879
 1497SOL    HW1 5083   3.516   4.573   3.288  1.2426  1.6677  0.8972
 1497SOL    HW2 5084   3.466   4.632   3.159  2.5699 -0.3874 -0.6389
 1498SOL     OW 5085   0.269   0.884   2.926 -0.2918  0.1256  0.5052
 1498SOL    HW1 5086   0.345   0.940   2.942  0.1022 -0.6141  1.3271
 1498SOL    HW2 5087   0.205   0.941   2.884  0.8455  0.6780 -0.5300
 1499SOL     OW 5088   1.713   1.219   1.226  0.4371  0.5841 -0.0030
 1499SOL    HW1 5089   1.621   1.224   1.251  0.7258  0.5144  1.1667
 1499SOL    HW2 5090   1.713   1.187   1.136 -0.6853  0.8385 -0.1039
 1500SOL     OW 5091   0.262   3.625   2.392  0.6411  0.2468  0.5863
 1500SOL    HW1 5092   0.170   3.631   2.415  0.8080  0.0010  1.3533
 1500SOL    HW2 5093   0.307   3.614   2.476  1.2373 -1.1825  0.1125
 1501SOL     OW 5094   7.130   2.931   0.199  0.1301 -0.5573  0.1777
 1501SOL    HW1 5095   7.125   2.973   0.286  0.6483  0.1466 -0.1217
 1501SOL    HW2 5096   7.048   2.954   0.157 -0.6913 -1.9846  0.9475
 1502SOL     OW 5097   6.909   0.506   1.546  0.4041 -0.6483  0.3597
 1502SOL    HW1 5098   6.949   0.500   1.459  1.1184  0.6259  0.5647
 1502SOL    HW2 5099   6.818   0.532   1.528 -0.6169 -4.0813 -0.1348
 1503SOL     OW 5100   1.788   2.749   0.729 -0.7609  0.5564  0.1137
 1503SOL    HW1 5101   1.779   2.745   0.634 -0.0120  0.3260  0.0430
 1503SOL    HW2 5102   1.805   2.658   0.755 -0.0121  0.7575  0.3543
 1504SOL     OW 5103   1.899   5.244   2.686 -0.2072  0.1094 -0.3546
 1504SOL    HW1 5104   1.869   5.224   2.598  0.6774 -0.1240 -0.6167
 1504SOL    HW2 5105   1.974   5.302   2.673  1.5564 -1.9529  0.1039
 1505SOL     OW 5106   5.576   2.161   0.305  0.6254 -0.6960 -0.5942
 1505SOL    HW1 5107   5.589   2.071   0.336  0.4999 -0.8585 -1.0076
 1505SOL    HW2 5108   5.615   2.162   0.217  2.7987  0.2866  0.2845
 1506SOL     OW 5109   7.264   4.529   1.262  0.6862  0.2885 -0.2105
 1506SOL    HW1 5110   7.351   4.548   1.298  0.4029  0.0252  0.6386
 1506SOL    HW2 5111   7.279   4.459   1.199  0.8760 -0.9272  1.1443
 1507SOL     OW 5112   3.797   4.255   0.256  0.0666  0.2105 -0.4008
 1507SOL    HW1 5113   3.703   4.246   0.242 -0.2382 -0.5648  1.7311
 1507SOL    HW2 5114   3.832   4.168   0.240  0.5742  0.6491 -1.8600
 1508SOL     OW 5115   3.983   0.275   3.456  0.5793  0.1101  0.2941
 1508SOL    HW1 5116   3.946   0.353   3.417 -0.7804 -0.7891 -0.2689
 1508SOL    HW2 5117   3.909   0.216   3.469  1.3791 -0.6375  1.8363
 1509SOL     OW 5118   2.596   0.681   1.891 -0.2517  0.0539  0.2312
 1509SOL    HW1 5119   2.583   0.769   1.857 -0.0175 -0.2986 -0.8231
 1509SOL    HW2 5120   2.573   0.624   1.817 -1.2528 -0.7952  1.1630
 1510SOL     OW 5121   5.682   1.502   0.712  0.6850  0.0577  0.5485
 1510SOL    HW1 5122   5.719   1.493   0.624 -0.8323  1.2632 -0.2641
 1510SOL    HW2 5123   5.722   1.431   0.762  0.0016 -2.0405 -1.6555
 1511SOL     OW 5124   0.614   4.254   3.056  0.6328 -0.2696 -0.3852
 1511SOL    HW1 5125   0.615   4.229   3.148 -0.1217  1.3411  0.0972
 1511SOL    HW2 5126   0.539   4.209   3.019  0.5655 -0.4299 -0.0564
 1512SOL     OW 5127   0.496   3.521   0.002  0.0760  0.2582 -0.0305
 1512SOL    HW1 5128   0.469   3.589   0.064  3.3995 -0.4063  2.4648
 1512SOL    HW2 5129   0.422   3.461  -0.002 -1.0877  1.5039  1.5895
 1513SOL     OW 5130   6.980   0.587   1.926  0.1749 -0.2062  0.2287
 1513SOL    HW1 5131   7.005   0.495   1.920 -0.4957 -0.5347  1.8980
 1513SOL    HW2 5132   7.005   0.613   2.015  0.2550  1.1928 -0.1847
 1514SOL     OW 5133   0.429   3.716   0.176  0.1943 -0.6455 -0.3308
 1514SOL    HW1 5134   0.341   3.720   0.214  0.2717 -1.6508 -0.0053
 1514SOL    HW2 5135   0.472   3.796   0.206 -0.2164 -0.7356  0.5384
 1515SOL     OW 5136   2.686   2.644   0.465  0.4678 -0.7122 -0.0414
 1515SOL    HW1 5137   2.591   2.651   0.464  0.4821 -0.4743 -0.8074
 1515SOL    HW2 5138   2.711   2.642   0.372  1.1835 -1.1195  0.1517
 1516SOL     OW 5139   7.017   3.621   1.363  0.6304  0.3372  0.1550
 1516SOL    HW1 5140   7.062   3.537   1.373  1.6568  1.0003  1.4292
 1516SOL    HW2 5141   7.045   3.672   1.439 -0.0801  1.7837 -0.5235
 1517SOL     OW 5142   6.110   3.439   2.767 -0.0405 -0.0078  0.0508
 1517SOL    HW1 5143   6.027   3.415   2.809  1.3545 -1.4876  2.1464
 1517SOL    HW2 5144   6.136   3.361   2.719  2.7342 -1.7716  3.9353
 1518SOL     OW 5145   4.646   5.069   2.341 -0.1320  0.0183  0.3870
 1518SOL    HW1 5146   4.604   5.066   2.427 -2.1402 -0.7556 -0.5677
 1518SOL    HW2 5147   4.724   5.124   2.354 -1.2090  1.1700  2.3281
 1519SOL     OW 5148   3.115   1.090   2.455 -0.0782 -0.1756  0.1616
 1519SOL    HW1 5149   3.169   1.028   2.504  1.4860  1.1525  0.2080
 1519SOL    HW2 5150   3.076   1.038   2.385  0.4298 -1.3928  0.7536
 1520SOL     OW 5151   6.764   3.549   1.029 -0.0826 -0.3149  0.2036
 1520SOL    HW1 5152   6.738   3.457   1.035  1.8149 -0.8061  2.3784
 1520SOL    HW2 5153   6.837   3.550   0.967  0.8489 -0.5658  1.2640
 1521SOL     OW 5154   1.906   1.865   3.013 -0.1591  0.0314 -0.0590
 1521SOL    HW1 5155   1.984   1.862   2.958  0.7717 -2.1109  1.2504
 1521SOL    HW2 5156   1.918   1.943   3.068  1.4123 -0.6110  0.5613
 1522SOL     OW 5157   1.053   2.940   1.717 -0.3063 -0.2448 -0.1770
 1522SOL    HW1 5158   0.990   2.922   1.647  0.3724 -0.3471 -0.7815
 1522SOL    HW2 5159   1.127   2.882   1.698  0.7253  1.1327 -0.5269
 1523SOL     OW 5160   2.358   0.602   1.107  0.6304  0.4171 -0.4656
 1523SOL    HW1 5161   2.313   0.603   1.192  2.4089  0.7988  0.5101
 1523SOL    HW2 5162   2.298   0.554   1.050  0.3446 -1.8873  1.5816
 1524SOL     OW 5163   5.064   4.775   0.083  0.2592 -0.3880  0.4950
 1524SOL    HW1 5164   5.074   4.862   0.045 -5.3371  0.4368  0.0140
 1524SOL    HW2 5165   5.068   4.715   0.008 -0.0886  0.0201  0.1411
 1525SOL     OW 5166   2.206   0.245   2.419 -0.4778  0.0618  0.4682
 1525SOL    HW1 5167   2.287   0.200   2.445 -1.0035 -0.6739  0.8872
 1525SOL    HW2 5168   2.229   0.289   2.337  0.0627 -0.9968  0.0242
 1526SOL     OW 5169   4.463   0.239   1.717 -0.0279  0.1729 -0.5785
 1526SOL    HW1 5170   4.387   0.213   1.666 -0.8178 -0.9545  1.1087
 1526SOL    HW2 5171   4.471   0.334   1.702 -2.2386  0.4701 -0.1759
 1527SOL     OW 5172   6.021   1.426   3.323  0.6654 -0.2972 -0.6611
 1527SOL    HW1 5173   6.094   1.393   3.375  2.0404  0.2542 -2.1553
 1527SOL    HW2 5174   6.022   1.520   3.337  0.0432 -0.3136 -0.4656
 1528SOL     OW 5175   0.912   0.994   1.221 -0.0266 -0.4936 -0.4649
 1528SOL    HW1 5176   0.926   0.943   1.141  0.5956 -1.3675  0.1786
 1528SOL    HW2 5177   0.970   0.953   1.286  0.1758  0.7921  0.1863
 1529SOL     OW 5178   1.519   3.256   3.287  0.0882  0.8998  0.4230
 1529SOL    HW1 5179   1.437   3.208   3.278 -0.3388  1.4428  1.2663
 1529SOL    HW2 5180   1.493   3.348   3.282  0.8116  1.0676 -0.5606
 1530SOL     OW 5181   5.933   2.360   1.236  0.2602  0.5768 -0.4775
 1530SOL    HW1 5182   5.934   2.265   1.244  1.0912  0.7268  1.6366
 1530SOL    HW2 5183   6.025   2.386   1.231  0.1028  1.3571  0.4200
 1531SOL     OW 5184   2.831   3.027   1.225 -0.4553 -0.3095 -0.2054
 1531SOL    HW1 5185   2.883   2.967   1.171 -0.9030 -1.4456  0.5831
 1531SOL    HW2 5186   2.849   3.113   1.189  1.7011 -0.6981 -0.1806
 1532SOL     OW 5187   4.897   0.749   3.345  0.3498 -0.6447 -0.4222
 1532SOL    HW1 5188   4.815   0.799   3.343 -0.0817 -1.1077  1.9432
 1532SOL    HW2 5189   4.928   0.757   3.435  2.5849 -1.0508 -1.0912
 1533SOL     OW 5190   5.646   0.236   1.705  0.3610 -0.6354  0.0602
 1533SOL    HW1 5191   5.668   0.309   1.646 -0.3690 -0.7458 -0.3705
 1533SOL    HW2 5192   5.613   0.279   1.784  2.5849 -0.4609  0.9407
 1534SOL     OW 5193   3.768   2.671   0.171  0.2558  0.5776 -0.2876
 1534SOL    HW1 5194   3.709   2.719   0.112 -0.5560  1.4417  1.1851
 1534SOL    HW2 5195   3.713   2.604   0.211  0.7965  0.0283 -0.4484
 1535SOL     OW 5196   2.549   1.346   0.922  0.0020 -0.0964  0.1337
 1535SOL    HW1 5197   2.640   1.358   0.948  0.2830 -0.5201 -0.6275
 1535SOL    HW2 5198   2.498   1.387   0.992  0.7876  0.5681  0.3223
 1536SOL     OW 5199   4.227   4.573   0.358  0.3133 -0.0858 -0.7047
 1536SOL    HW1 5200   4.176   4.517   0.299 -0.8590 -0.8459  0.9772
 1536SOL    HW2 5201   4.247   4.518   0.433  1.1899  1.0668 -0.0492
 1537SOL     OW 5202   0.135   3.589   2.996 -0.3694 -0.0181 -0.0394
 1537SOL    HW1 5203   0.127   3.515   2.936  0.5535 -0.1092 -0.0568
 1537SOL    HW2 5204   0.044   3.616   3.013 -0.6269  0.7267 -2.3410
 1538SOL     OW 5205   0.635   0.720   1.708 -0.1356 -0.5990  0.7562
 1538SOL    HW1 5206   0.669   0.789   1.766 -1.5360 -0.0242  0.9319
 1538SOL    HW2 5207   0.571   0.765   1.652 -1.4925 -1.8467  1.2390
 1539SOL     OW 5208   4.204   0.269   3.292  0.2524 -0.4348 -0.6065
 1539SOL    HW1 5209   4.167   0.331   3.229 -1.2251 -2.6039 -2.0554
 1539SOL    HW2 5210   4.139   0.264   3.362  0.9392  0.4831  0.1195
 1540SOL     OW 5211   1.893   2.362   3.292  0.3834 -0.0817  0.4119
 1540SOL    HW1 5212   1.800   2.382   3.304  0.3334  0.9584 -1.4302
 1540SOL    HW2 5213   1.920   2.323   3.376 -1.4826  0.4237  1.2987
 1541SOL     OW 5214   1.550   3.634   0.043  0.0657  0.0840 -0.2646
 1541SOL    HW1 5215   1.635   3.613   0.006 -0.2570  0.0645 -1.0205
 1541SOL    HW2 5216   1.569   3.673   0.128  0.8050 -0.3306 -0.2346
 1542SOL     OW 5217   3.833   2.975   2.800 -0.3329 -0.0758 -0.1145
 1542SOL    HW1 5218   3.741   2.996   2.818 -1.1477 -1.1550 -2.5876
 1542SOL    HW2 5219   3.838   2.966   2.705  2.2313 -0.5868 -0.0098
 1543SOL     OW 5220   2.484   2.434   1.237 -0.0066 -0.5634 -0.6047
 1543SOL    HW1 5221   2.552   2.501   1.244  1.3057 -1.9826  0.9718
 1543SOL    HW2 5222   2.410   2.480   1.196  0.7442  1.9240  0.6000
 1544SOL     OW 5223   7.185   2.976   0.718  0.2909 -0.6516 -0.4619
 1544SOL    HW1 5224   7.235   3.010   0.644  1.2601  0.5958  0.6982
 1544SOL    HW2 5225   7.246   2.919   0.764 -0.0525 -0.8168 -0.2107
 1545SOL     OW 5226   0.148   1.052   2.355 -0.6142 -0.2629  0.4323
 1545SOL    HW1 5227   0.235   1.026   2.386 -0.9741 -0.3508  1.3694
 1545SOL    HW2 5228   0.126   0.987   2.288 -0.9442 -1.6456  1.8251
 1546SOL     OW 5229   4.534   0.030   2.824  0.5199 -0.7040  0.2946
 1546SOL    HW1 5230   4.456   0.061   2.870  0.0725 -2.6599  0.9702
 1546SOL    HW2 5231   4.500  -0.006   2.742  0.6320 -1.9292  0.7709
 1547SOL     OW 5232   0.601   3.207   3.019 -0.1596  0.0590 -0.0425
 1547SOL    HW1 5233   0.579   3.138   3.082  0.0811 -0.7033 -0.7731
 1547SOL    HW2 5234   0.572   3.288   3.061 -1.7487 -0.6194  0.2369
 1548SOL     OW 5235   6.841   5.019   1.258  0.3869 -0.4110  0.3684
 1548SOL    HW1 5236   6.844   5.069   1.176 -1.8780 -2.5577 -1.1822
 1548SOL    HW2 5237   6.765   5.053   1.304  0.3304 -0.7183  0.5025
 1549SOL     OW 5238   4.850   1.627   1.695 -0.3995  0.4560 -0.2283
 1549SOL    HW1 5239   4.883   1.715   1.679 -1.6956  1.0621  0.3003
 1549SOL    HW2 5240   4.773   1.620   1.638  0.6290 -0.9515 -1.5160
 1550SOL     OW 5241   3.207   3.841   3.172 -0.1744  0.2614  0.6166
 1550SOL    HW1 5242   3.127   3.789   3.176 -0.1480  0.1962  0.2913
 1550SOL    HW2 5243   3.177   3.932   3.182 -0.1260  0.1262  2.2014
 1551SOL     OW 5244   5.172   0.599   1.124  0.5091  0.2059 -0.1386
 1551SOL    HW1 5245   5.148   0.681   1.167  2.5699  0.0274  1.4953
 1551SOL    HW2 5246   5.264   0.586   1.145  1.1446 -0.9465 -3.0432
 1552SOL     OW 5247   3.184   0.512   0.872  0.2687  0.1122 -0.2670
 1552SOL    HW1 5248   3.130   0.578   0.828 -1.1946  0.0450  1.2962
 1552SOL    HW2 5249   3.121   0.445   0.899  1.2126 -0.2281  1.1815
 1553SOL     OW 5250   5.983   3.770   2.397 -0.2465 -0.3255  0.1996
 1553SOL    HW1 5251   5.898   3.728   2.408  0.5402 -2.5922 -1.6887
 1553SOL    HW2 5252   6.047   3.702   2.417  1.0994  0.3338 -1.6054
 1554SOL     OW 5253   0.211   3.628   1.424  0.6480 -0.5115  0.0224
 1554SOL    HW1 5254   0.195   3.558   1.361 -2.4677  0.4016 -0.3351
 1554SOL    HW2 5255   0.158   3.605   1.500  0.6373  0.7830  0.4345
 1555SOL     OW 5256   2.583   3.350   2.714  0.0156 -0.1324  0.0530
 1555SOL    HW1 5257   2.672   3.333   2.683 -0.0485 -0.9809  0.3252
 1555SOL    HW2 5258   2.559   3.432   2.671  0.0334 -1.0864 -1.9013
 1556SOL     OW 5259   2.263   0.557   0.440 -0.4084 -0.7913  0.0502
 1556SOL    HW1 5260   2.217   0.637   0.415  0.3600 -0.3113  0.1417
 1556SOL    HW2 5261   2.333   0.548   0.376  0.2948 -0.6852  0.7845
 1557SOL     OW 5262   5.072   4.381   1.048  0.4700 -0.1117 -0.0490
 1557SOL    HW1 5263   5.128   4.324   1.100 -1.1226  0.2833  2.2211
 1557SOL    HW2 5264   4.986   4.340   1.050 -0.4468  1.7230  0.6376
 1558SOL     OW 5265   6.083   4.691   2.878  0.6072  1.1547 -0.3462
 1558SOL    HW1 5266   6.017   4.622   2.876 -0.2099  1.9380 -1.7466
 1558SOL    HW2 5267   6.138   4.669   2.954 -0.3635 -0.3258 -0.0260
 1559SOL     OW 5268   2.023   0.589   2.839 -0.0475  0.0244 -0.4886
 1559SOL    HW1 5269   2.013   0.685   2.843  2.2166  0.2641  1.7904
 1559SOL    HW2 5270   1.994   0.559   2.925  3.1631 -0.8016  0.4225
 1560SOL     OW 5271   7.333   3.010   0.492  0.2106 -0.5418 -0.5769
 1560SOL    HW1 5272   7.388   2.939   0.460 -0.7135 -1.2053 -0.7399
 1560SOL    HW2 5273   7.372   3.089   0.455 -0.3677 -1.2118 -2.7820
 1561SOL     OW 5274   3.570   2.554   0.290  0.1184  0.0766 -0.0032
 1561SOL    HW1 5275   3.538   2.494   0.222 -0.2384 -0.1694  0.3798
 1561SOL    HW2 5276   3.492   2.578   0.340  0.4850 -0.2982  0.7620
 1562SOL     OW 5277   6.445   0.346   0.830 -0.0764  0.2155 -0.0249
 1562SOL    HW1 5278   6.439   0.436   0.862  1.2355  0.0611  0.7325
 1562SOL    HW2 5279   6.515   0.307   0.882 -0.9816 -1.4103  0.0346
 1563SOL     OW 5280   2.579   4.155   0.440  0.2679  0.1249 -0.2701
 1563SOL    HW1 5281   2.650   4.127   0.382  0.9610 -0.5517  0.8663
 1563SOL    HW2 5282   2.598   4.113   0.524 -0.7929  0.9498  0.4182
 1564SOL     OW 5283   3.968   4.787   0.980 -0.1293  0.0648  0.4073
 1564SOL    HW1 5284   4.064   4.785   0.980 -0.1327 -0.9922 -0.7339
 1564SOL    HW2 5285   3.946   4.850   1.049  1.3811  0.6913  0.3577
 1565SOL     OW 5286   2.405   0.235   0.900  0.0173 -0.0144  0.2614
 1565SOL    HW1 5287   2.471   0.223   0.832 -0.4616 -0.5867 -0.1095
 1565SOL    HW2 5288   2.336   0.286   0.858 -0.5257 -0.8234  0.1370
 1566SOL     OW 5289   5.660   2.732   1.704 -0.1750  0.2304 -0.0046
 1566SOL    HW1 5290   5.741   2.691   1.672  0.1481  1.5098 -0.9111
 1566SOL    HW2 5291   5.690   2.807   1.755 -0.7845  1.4818 -1.4340
 1567SOL     OW 5292   0.953   1.405   0.573 -0.4075 -0.5938  0.5275
 1567SOL    HW1 5293   0.949   1.495   0.608  1.3204 -0.6115  0.8588
 1567SOL    HW2 5294   0.935   1.415   0.479  2.4555  0.5596 -0.0188
 1568SOL     OW 5295   4.155   4.506   1.873 -0.2903  0.3076  0.0254
 1568SOL    HW1 5296   4.132   4.479   1.961  0.3291  0.0400  0.1123
 1568SOL    HW2 5297   4.250   4.491   1.867 -0.5480 -1.1372 -1.1867
 1569SOL     OW 5298   1.326   1.640   1.992  0.2001 -0.0486  0.4308
 1569SOL    HW1 5299   1.367   1.602   1.915 -0.4513  0.3422 -0.1269
 1569SOL    HW2 5300   1.291   1.565   2.041 -1.1683 -0.1947 -0.7103
 1570SOL     OW 5301   2.842   0.214   0.412  0.7006  0.2126 -0.1707
 1570SOL    HW1 5302   2.766   0.270   0.399 -0.8024 -1.5866  0.4872
 1570SOL    HW2 5303   2.874   0.237   0.500 -0.0473 -0.0620  0.1875
 1571SOL     OW 5304   0.234   2.376   1.729  0.2641 -0.1356  0.7565
 1571SOL    HW1 5305   0.284   2.327   1.663 -2.4679 -1.7340 -0.2775
 1571SOL    HW2 5306   0.236   2.467   1.698 -2.5204 -1.0695 -2.7904
 1572SOL     OW 5307   4.796   1.435   3.439 -0.1779  0.8142  0.6217
 1572SOL    HW1 5308   4.832   1.371   3.501  0.2238  0.5924  0.1721
 1572SOL    HW2 5309   4.705   1.409   3.427  0.2196 -0.2438 -0.2560
 1573SOL     OW 5310   1.602   3.215   1.715 -0.3166  0.2086 -0.1969
 1573SOL    HW1 5311   1.512   3.238   1.738 -0.8194 -2.0087  0.2507
 1573SOL    HW2 5312   1.651   3.296   1.729 -1.7451  0.7395  2.4070
 1574SOL     OW 5313   6.531   3.752   2.310  0.0650 -0.0116 -0.0612
 1574SOL    HW1 5314   6.591   3.816   2.272  0.1885 -0.2470 -0.2637
 1574SOL    HW2 5315   6.475   3.803   2.368  0.5822  0.1817  0.2738
 1575SOL     OW 5316   4.287   4.690   0.839  0.9261 -0.1787  0.3096
 1575SOL    HW1 5317   4.238   4.705   0.758 -0.7936  1.5219  1.5405
 1575SOL    HW2 5318   4.279   4.596   0.855 -0.7481 -0.1811 -0.3104
 1576SOL     OW 5319   3.825   4.652   1.499 -0.2063  0.4697  0.2634
 1576SOL    HW1 5320   3.858   4.573   1.541  0.9524  0.2941 -0.8951
 1576SOL    HW2 5321   3.886   4.668   1.427 -0.5523  2.2881  0.3151
 1577SOL     OW 5322   0.786   0.398   0.746  0.7399  0.2752  0.2693
 1577SOL    HW1 5323   0.750   0.310   0.737  1.5127 -0.0265  0.0737
 1577SOL    HW2 5324   0.868   0.396   0.697 -0.2485  1.7201 -1.5926
 1578SOL     OW 5325   1.928   2.653   1.708 -0.2372  0.0470  0.3045
 1578SOL    HW1 5326   1.951   2.593   1.778  1.0630  1.8276  1.4916
 1578SOL    HW2 5327   1.870   2.717   1.749 -0.0251  0.7149 -0.4079
 1579SOL     OW 5328   4.787   1.712   2.002  0.0343 -0.1576 -0.4672
 1579SOL    HW1 5329   4.849   1.746   1.937 -0.1101 -1.0168 -1.0684
 1579SOL    HW2 5330   4.709   1.689   1.950 -0.1169 -0.7614  0.0209
 1580SOL     OW 5331   0.790   2.963   3.048  0.4663  0.4073 -0.1461
 1580SOL    HW1 5332   0.876   2.935   3.018  0.1974 -0.7443  0.1242
 1580SOL    HW2 5333   0.729   2.925   2.985 -0.0072 -0.9469  1.0969
 1581SOL     OW 5334   0.681   1.045   3.458  0.3167 -0.6261  0.5242
 1581SOL    HW1 5335   0.626   1.088   3.524  0.7693  1.3918 -0.3488
 1581SOL    HW2 5336   0.618   1.003   3.399 -0.4534  2.0288 -0.7259
 1582SOL     OW 5337   2.596   0.652   1.003 -0.1357  0.3337 -0.9041
 1582SOL    HW1 5338   2.622   0.720   1.065 -0.5502 -0.5443  0.2507
 1582SOL    HW2 5339   2.507   0.629   1.028  0.7585 -2.2220  0.2139
 1583SOL     OW 5340   1.931   3.815   0.115  0.1031 -0.1833 -0.2169
 1583SOL    HW1 5341   1.888   3.850   0.037  0.7472  1.9834  0.3236
 1583SOL    HW2 5342   1.981   3.741   0.084 -0.5352 -0.0472 -1.6525
 1584SOL     OW 5343   5.472   3.171   0.482  0.2359 -0.1617 -0.1073
 1584SOL    HW1 5344   5.509   3.087   0.456 -1.6285 -1.0055 -0.2258
 1584SOL    HW2 5345   5.545   3.221   0.517  1.3379 -1.9175  0.1678
 1585SOL     OW 5346   5.697   2.456   0.838 -0.2754 -0.0031  0.1717
 1585SOL    HW1 5347   5.723   2.482   0.927  3.0117  0.5236 -0.7910
 1585SOL    HW2 5348   5.776   2.416   0.802 -1.2312  0.6145 -2.8205
 1586SOL     OW 5349   3.928   0.330   1.057 -0.1714  0.2826  0.3102
 1586SOL    HW1 5350   3.933   0.421   1.029 -1.4616  0.4600  0.5949
 1586SOL    HW2 5351   3.980   0.282   0.992  1.1259  1.2793  0.5566
 1587SOL     OW 5352   0.306   5.105   1.103 -0.4575  0.1502 -0.2872
 1587SOL    HW1 5353   0.396   5.094   1.135 -0.6443 -0.2373  0.1190
 1587SOL    HW2 5354   0.251   5.074   1.175 -0.9458  1.1616 -0.2071
 1588SOL     OW 5355   1.355   1.896   2.651 -0.1902 -0.1053  0.4429
 1588SOL    HW1 5356   1.398   1.962   2.597 -0.6063 -0.2970 -0.1275
 1588SOL    HW2 5357   1.268   1.884   2.611 -0.5587 -0.1428  1.2340
 1589SOL     OW 5358   7.069   5.264   1.128 -0.5090  0.2903  0.0103
 1589SOL    HW1 5359   6.985   5.229   1.099  0.6107 -0.6040 -2.4718
 1589SOL    HW2 5360   7.083   5.341   1.074 -0.6246  1.7340  1.9105
 1590SOL     OW 5361   3.214   4.326   2.481  0.0352 -0.4629  0.1962
 1590SOL    HW1 5362   3.309   4.323   2.487  0.4723  2.6507 -2.4886
 1590SOL    HW2 5363   3.189   4.405   2.530 -0.9451 -0.2797 -0.5624
 1591SOL     OW 5364   1.046   0.175   2.183  0.5098 -0.2019  0.2927
 1591SOL    HW1 5365   1.138   0.199   2.168  0.2227  0.9049  0.2075
 1591SOL    HW2 5366   1.049   0.083   2.207  1.6021 -0.3097 -0.1876
 1592SOL     OW 5367   1.462   1.160   2.144  0.0632  0.1898  0.1200
 1592SOL    HW1 5368   1.500   1.121   2.223  0.2627 -1.6853 -0.8391
 1592SOL    HW2 5369   1.500   1.109   2.072 -1.6878  0.4847 -1.0641
 1593SOL     OW 5370   3.016   1.950   1.293 -0.2858 -0.5588  0.3364
 1593SOL    HW1 5371   2.953   1.879   1.302 -1.1008 -0.1524 -1.7238
 1593SOL    HW2 5372   3.072   1.923   1.220 -1.9128  1.7534 -1.9387
 1594SOL     OW 5373   2.206   2.544   1.108 -0.0098 -0.0427  0.4272
 1594SOL    HW1 5374   2.158   2.606   1.052  1.6509  0.4635 -0.5082
 1594SOL    HW2 5375   2.161   2.549   1.193 -0.7857  1.4014 -0.0284
 1595SOL     OW 5376   6.539   2.122   1.280  0.0294  0.0961 -0.2917
 1595SOL    HW1 5377   6.518   2.213   1.298  0.2402 -0.0963  1.0428
 1595SOL    HW2 5378   6.467   2.090   1.226 -0.7326  0.6928  0.3628
 1596SOL     OW 5379   3.191   2.238   1.263 -0.4086 -0.0273  0.0928
 1596SOL    HW1 5380   3.269   2.198   1.301  0.4830  1.5380  0.0242
 1596SOL    HW2 5381   3.119   2.181   1.289  0.2814  0.3566  3.1853
 1597SOL     OW 5382   0.948   0.678   1.836 -0.1860 -0.4545  0.0764
 1597SOL    HW1 5383   0.875   0.665   1.897 -0.1968  1.6262  0.5996
 1597SOL    HW2 5384   0.945   0.602   1.779 -1.5204 -1.4178  1.3377
 1598SOL     OW 5385   3.052   1.162   2.976  0.3675 -0.1204 -0.2340
 1598SOL    HW1 5386   2.986   1.093   2.985 -0.2798  0.4541 -0.5820
 1598SOL    HW2 5387   3.035   1.201   2.891 -0.1126  1.3407  0.5109
 1599SOL     OW 5388   3.403   2.968   3.140  0.2209 -0.3470 -0.0458
 1599SOL    HW1 5389   3.431   3.054   3.107  2.0415 -0.9037 -0.0376
 1599SOL    HW2 5390   3.370   2.923   3.062  2.4090 -0.8267 -0.7868
 1600SOL     OW 5391   3.372   3.219   1.561  0.4893  0.0939  0.0685
 1600SOL    HW1 5392   3.298   3.227   1.621  0.3914  0.1291 -0.0583
 1600SOL    HW2 5393   3.340   3.163   1.490  0.2927  0.8416 -0.4473
 1601SOL     OW 5394   2.792   0.219   1.042 -0.1269 -0.1141  0.5513
 1601SOL    HW1 5395   2.810   0.161   1.116  0.2486  0.1807  0.6947
 1601SOL    HW2 5396   2.719   0.178   0.996  0.9898 -1.4557 -0.1296
 1602SOL     OW 5397   3.300   4.572   0.980  0.2023  0.7231 -0.2399
 1602SOL    HW1 5398   3.218   4.587   1.028 -0.1366 -0.5537 -0.3886
 1602SOL    HW2 5399   3.359   4.535   1.045 -0.0117 -0.2866 -0.6030
 1603SOL     OW 5400   2.452   4.877   2.357 -0.0176  0.1280  0.4942
 1603SOL    HW1 5401   2.491   4.962   2.338 -0.7041  0.0444 -1.5944
 1603SOL    HW2 5402   2.508   4.814   2.311 -2.3720 -0.0015 -2.5188
 1604SOL     OW 5403   2.261   0.020   2.609  0.3220  0.0055 -0.1790
 1604SOL    HW1 5404   2.267  -0.028   2.692 -1.3814 -1.3213 -0.7358
 1604SOL    HW2 5405   2.200   0.091   2.627  0.2898 -0.0223 -0.1778
 1605SOL     OW 5406   1.556   4.884   3.258  1.2047  0.3496 -0.0932
 1605SOL    HW1 5407   1.622   4.835   3.307  0.3200 -1.5048 -0.6655
 1605SOL    HW2 5408   1.605   4.928   3.190  1.7435 -3.0681 -2.1730
 1606SOL     OW 5409   5.693   5.201   1.126 -0.1214  0.2071  0.1501
 1606SOL    HW1 5410   5.739   5.254   1.061 -2.2182  0.3760 -1.2914
 1606SOL    HW2 5411   5.658   5.265   1.188 -1.3437  0.4431 -0.7344
 1607SOL     OW 5412   4.067   0.379   2.097 -0.3039  0.0455  0.0648
 1607SOL    HW1 5413   4.052   0.433   2.020  0.5123 -0.0650 -0.1716
 1607SOL    HW2 5414   4.044   0.436   2.171  0.1988  0.5934 -0.1962
 1608SOL     OW 5415   0.368   2.932   0.183 -0.2675  0.2097 -0.4512
 1608SOL    HW1 5416   0.298   2.944   0.247  1.5278  1.6794  1.3879
 1608SOL    HW2 5417   0.439   2.988   0.215  1.9678 -1.6466 -1.8618
 1609SOL     OW 5418   2.309   1.784   0.658  0.0422  0.0262 -0.0087
 1609SOL    HW1 5419   2.363   1.732   0.599 -0.3621  0.6748 -0.9729
 1609SOL    HW2 5420   2.373   1.828   0.715  0.4295 -0.7071  0.1373
 1610SOL     OW 5421   2.290   1.405   3.355 -0.3175  0.1776  0.3836
 1610SOL    HW1 5422   2.233   1.459   3.301 -1.3777 -2.3990 -1.2536
 1610SOL    HW2 5423   2.230   1.360   3.415 -0.2516 -2.8473 -1.6033
 1611SOL     OW 5424   4.705   4.288   3.469 -0.3173 -1.0196 -0.3603
 1611SOL    HW1 5425   4.794   4.258   3.452  0.4261  0.3189  0.8890
 1611SOL    HW2 5426   4.716   4.363   3.528 -2.3022 -1.1999  0.3231
 1612SOL     OW 5427   2.154   1.619   2.763  0.6524 -0.0588  0.6547
 1612SOL    HW1 5428   2.183   1.699   2.719  1.2259 -0.1911  0.7859
 1612SOL    HW2 5429   2.059   1.626   2.765  0.6197  0.0277 -0.4660
 1613SOL     OW 5430   4.640   0.294   3.355 -0.0990  0.4389 -0.2687
 1613SOL    HW1 5431   4.656   0.327   3.266  2.4650  1.9345  0.6473
 1613SOL    HW2 5432   4.593   0.365   3.398 -1.2465 -0.2435 -0.3746
 1614SOL     OW 5433   6.842   1.929   2.347 -0.8027 -0.3043 -0.7781
 1614SOL    HW1 5434   6.809   1.902   2.261 -1.7537 -1.6435 -0.0291
 1614SOL    HW2 5435   6.936   1.909   2.344 -0.9419 -0.9245 -1.2999
 1615SOL     OW 5436   3.073   3.415   0.062  0.3153  0.1992  0.9205
 1615SOL    HW1 5437   3.013   3.490   0.063  0.7088  0.5118  1.0363
 1615SOL    HW2 5438   3.023   3.345   0.020 -0.3283  0.3033  1.4841
 1616SOL     OW 5439   5.535   3.836   1.343  0.1310  0.0249 -1.0513
 1616SOL    HW1 5440   5.560   3.778   1.271  0.0949  1.2895 -2.1264
 1616SOL    HW2 5441   5.605   3.901   1.346 -0.1335  0.2773 -0.2664
 1617SOL     OW 5442   1.369   3.422   0.215 -0.4335 -0.2915  0.1449
 1617SOL    HW1 5443   1.288   3.371   0.224 -0.9506 -0.3105 -3.1731
 1617SOL    HW2 5444   1.378   3.436   0.121  3.5814 -0.4879  0.3006
 1618SOL     OW 5445   4.638   3.845   0.149  0.1932  0.2542 -0.1662
 1618SOL    HW1 5446   4.607   3.762   0.114  0.6718  0.4938 -1.1937
 1618SOL    HW2 5447   4.629   3.836   0.243 -0.0925 -0.8286 -0.2827
 1619SOL     OW 5448   2.455   5.017   2.838 -0.5674 -0.0088  0.9189
 1619SOL    HW1 5449   2.495   5.104   2.828 -0.3155  0.0030  1.9476
 1619SOL    HW2 5450   2.431   4.992   2.749 -0.1175  0.8661  0.5351
 1620SOL     OW 5451   0.289   2.442   2.655  0.2454  0.6696  0.2510
 1620SOL    HW1 5452   0.328   2.403   2.733 -0.7768  0.3418  0.6254
 1620SOL    HW2 5453   0.331   2.527   2.646  0.1549  0.8360  1.3384
 1621SOL     OW 5454   4.805   4.662   1.794 -0.0990  0.0272  0.0984
 1621SOL    HW1 5455   4.788   4.605   1.869 -0.4717  0.8449  0.6566
 1621SOL    HW2 5456   4.895   4.692   1.806 -1.1597  2.8766  2.1860
 1622SOL     OW 5457   2.372   2.704   1.461 -0.4832 -0.0228 -0.2380
 1622SOL    HW1 5458   2.281   2.711   1.493 -0.2172  1.0517  0.3330
 1622SOL    HW2 5459   2.379   2.773   1.395  0.8086  2.1954  2.0155
 1623SOL     OW 5460   2.456   4.566   1.818  0.8694 -0.3820 -0.5982
 1623SOL    HW1 5461   2.475   4.541   1.728 -2.1390 -1.6054 -1.0438
 1623SOL    HW2 5462   2.396   4.498   1.849  0.6894  0.7750  1.8582
 1624SOL     OW 5463   0.555   4.460   0.464 -0.1118  0.3302  0.0059
 1624SOL    HW1 5464   0.493   4.521   0.502 -1.7461 -1.4629  0.3891
 1624SOL    HW2 5465   0.518   4.373   0.481  0.9632 -0.7224 -2.4104
 1625SOL     OW 5466   2.854   2.619   2.552 -0.4203  0.3738 -0.2662
 1625SOL    HW1 5467   2.770   2.660   2.572 -0.7406  0.0746 -0.9700
 1625SOL    HW2 5468   2.919   2.688   2.567 -0.7337  0.4560  0.7814
 1626SOL     OW 5469   2.025   3.291   1.930 -0.6510  0.0605  0.2152
 1626SOL    HW1 5470   1.959   3.353   1.962 -1.6890 -1.5418  1.3380
 1626SOL    HW2 5471   2.108   3.335   1.946 -1.3001  0.7529  2.0242
 1627SOL     OW 5472   1.688   2.234   3.057 -0.1404  0.3300 -0.1698
 1627SOL    HW1 5473   1.637   2.219   2.977  1.3538 -1.0064 -0.9313
 1627SOL    HW2 5474   1.700   2.329   3.060  0.1508  0.3825 -1.8120
 1628SOL     OW 5475   1.447   4.083   2.416 -0.0554  0.4343 -0.3521
 1628SOL    HW1 5476   1.419   3.996   2.386  2.1685 -0.1957 -0.8631
 1628SOL    HW2 5477   1.467   4.071   2.509  0.0448  0.4399 -0.3723
 1629SOL     OW 5478   6.283   2.819   0.761  0.0871  0.0950 -0.0876
 1629SOL    HW1 5479   6.375   2.832   0.783  0.2550 -0.2841 -0.5437
 1629SOL    HW2 5480   6.269   2.872   0.682 -0.2640  0.6952  0.3724
 1630SOL     OW 5481   3.850   4.351   2.861 -1.1405 -0.4761  0.0981
 1630SOL    HW1 5482   3.796   4.337   2.939 -2.3212 -0.3902 -0.6665
 1630SOL    HW2 5483   3.940   4.339   2.891 -1.4842  0.6378  1.7103
 1631SOL     OW 5484   7.063   4.161   0.761  0.3284  0.0897 -0.3206
 1631SOL    HW1 5485   6.982   4.210   0.754  0.8957  1.5650  2.0963
 1631SOL    HW2 5486   7.125   4.223   0.799  1.8090 -1.7797  0.4891
 1632SOL     OW 5487   0.967   5.086   0.769 -0.1137 -0.7693  0.4148
 1632SOL    HW1 5488   1.011   5.024   0.828  0.9636  1.3370  1.9232
 1632SOL    HW2 5489   0.894   5.119   0.821 -0.4799 -0.5044 -0.2637
 1633SOL     OW 5490   0.495   3.911   2.556  0.2504  0.0021  0.2397
 1633SOL    HW1 5491   0.461   3.909   2.466  0.2660 -1.3471  0.2381
 1633SOL    HW2 5492   0.578   3.958   2.549  0.7169 -0.9180 -0.6348
 1634SOL     OW 5493   1.560   2.156   2.164  0.3149  0.0756 -0.0865
 1634SOL    HW1 5494   1.587   2.156   2.072  0.5963 -0.1179 -0.0066
 1634SOL    HW2 5495   1.487   2.095   2.168  0.0483  0.3808 -0.2522
 1635SOL     OW 5496   1.066   3.479   1.546 -0.0677 -0.1283 -0.0053
 1635SOL    HW1 5497   0.991   3.437   1.503 -0.0217  0.4674 -0.6793
 1635SOL    HW2 5498   1.141   3.424   1.524  0.2874  1.1605 -2.2979
 1636SOL     OW 5499   0.403   1.635   2.330 -0.6262 -0.5050  0.0395
 1636SOL    HW1 5500   0.456   1.556   2.326  0.0670 -0.0485 -0.0978
 1636SOL    HW2 5501   0.450   1.692   2.391  0.0714  0.6112 -1.4458
 1637SOL     OW 5502   1.636   4.750   2.033  0.1708 -0.1210 -0.4422
 1637SOL    HW1 5503   1.620   4.807   1.958 -0.9666 -0.8653 -0.7907
 1637SOL    HW2 5504   1.564   4.687   2.031  1.2186 -1.3803  0.1043
 1638SOL     OW 5505   1.388   5.258   2.449 -0.5456  0.3527  0.2363
 1638SOL    HW1 5506   1.439   5.339   2.444  1.2769 -0.8092 -3.2806
 1638SOL    HW2 5507   1.447   5.195   2.490 -0.5065 -0.0819 -0.4695
 1639SOL     OW 5508   1.379   3.313   0.636 -0.3955  0.1470 -0.0346
 1639SOL    HW1 5509   1.399   3.399   0.600 -2.2731  0.8048  0.3975
 1639SOL    HW2 5510   1.290   3.293   0.604 -0.4932 -1.0638  0.9059
 1640SOL     OW 5511   0.335   0.005   0.958 -0.1328  0.2588 -0.3720
 1640SOL    HW1 5512   0.332  -0.062   1.027 -0.3680 -1.8231 -2.2857
 1640SOL    HW2 5513   0.427   0.008   0.932 -0.1628  0.5140 -0.4516
 1641SOL     OW 5514   0.008   4.950   0.564 -0.2787 -0.0042 -0.3717
 1641SOL    HW1 5515   0.054   4.923   0.643 -0.6043 -1.9266 -0.7973
 1641SOL    HW2 5516  -0.060   5.010   0.595  0.9711  0.9869  0.5266
 1642SOL     OW 5517   2.425   4.548   1.332  0.1143 -0.1561  0.2040
 1642SOL    HW1 5518   2.364   4.479   1.307  0.1647 -0.0834 -0.1248
 1642SOL    HW2 5519   2.448   4.591   1.249  1.8424 -1.1839  0.1060
 1643SOL     OW 5520   2.289   3.562   0.477  0.2456  0.1462  0.7861
 1643SOL    HW1 5521   2.205   3.568   0.524  0.6159 -0.5429  1.5634
 1643SOL    HW2 5522   2.355   3.583   0.543  0.6621  1.5547 -0.0306
 1644SOL     OW 5523   2.748   1.754   0.326  0.4236 -0.1461  0.2747
 1644SOL    HW1 5524   2.806   1.678   0.327 -1.0617 -1.3223  0.5186
 1644SOL    HW2 5525   2.670   1.726   0.374 -0.4181  1.3376 -0.1435
 1645SOL     OW 5526   3.374   5.329   1.249  0.1897  0.3687 -0.7444
 1645SOL    HW1 5527   3.406   5.384   1.320  1.0556  2.1190 -2.3828
 1645SOL    HW2 5528   3.414   5.244   1.264 -0.3978  0.4110  1.3368
 1646SOL     OW 5529   3.464   0.922   2.718  0.5462 -0.3291  0.1395
 1646SOL    HW1 5530   3.523   0.910   2.793  0.7963  2.5128  0.5046
 1646SOL    HW2 5531   3.382   0.951   2.757  0.3978  0.3029 -0.6297
 1647SOL     OW 5532   7.188   4.292   2.445 -0.1680 -0.4326 -0.1938
 1647SOL    HW1 5533   7.157   4.202   2.456  1.2041 -0.9360 -0.1744
 1647SOL    HW2 5534   7.235   4.311   2.527 -1.5041  0.7696  0.3211
 1648SOL     OW 5535   5.223   1.269   3.457  0.4856 -0.1482  0.0849
 1648SOL    HW1 5536   5.282   1.268   3.533  0.9993  0.9892 -0.2691
 1648SOL    HW2 5537   5.282   1.267   3.381  0.0012 -0.5101 -0.2882
 1649SOL     OW 5538   0.326   1.454   3.164  0.1077  0.3063 -0.1121
 1649SOL    HW1 5539   0.417   1.426   3.161  0.6219  1.8572  0.3384
 1649SOL    HW2 5540   0.326   1.540   3.122 -1.0120  0.6640  0.5789
 1650SOL     OW 5541   3.035   3.338   1.493 -0.5317 -0.0667 -0.3782
 1650SOL    HW1 5542   3.107   3.356   1.433  0.4326  1.4592  1.1544
 1650SOL    HW2 5543   2.996   3.424   1.511 -0.6403 -0.4382  1.3269
 1651SOL     OW 5544   6.326   5.042   3.342  0.5151  0.3617 -0.2277
 1651SOL    HW1 5545   6.360   5.074   3.426  0.1090 -0.2743  0.1848
 1651SOL    HW2 5546   6.295   5.121   3.298  0.6403  0.6909  0.2608
 1652SOL     OW 5547   3.828   3.131   1.119  1.1618  0.0039 -0.2190
 1652SOL    HW1 5548   3.855   3.081   1.042 -1.7221 -0.9072 -0.7663
 1652SOL    HW2 5549   3.801   3.216   1.085  0.8875 -0.0213 -0.0682
 1653SOL     OW 5550   2.906   2.246   0.386  0.2611  0.0327 -0.4774
 1653SOL    HW1 5551   2.916   2.161   0.345 -1.8356 -0.2831 -0.4611
 1653SOL    HW2 5552   2.832   2.287   0.341 -0.6510  0.6124  1.3941
 1654SOL     OW 5553   7.043   3.371   0.374  0.2518  0.0268 -0.1561
 1654SOL    HW1 5554   7.095   3.297   0.343  1.1372  1.8646 -3.5245
 1654SOL    HW2 5555   7.107   3.433   0.408 -0.1929  0.3962  0.0175
 1655SOL     OW 5556   2.487   0.601   3.342 -0.1339  0.0944 -0.3980
 1655SOL    HW1 5557   2.519   0.683   3.377  1.1255 -0.3200 -0.5477
 1655SOL    HW2 5558   2.565   0.554   3.313 -0.8641 -0.9619 -0.7406
 1656SOL     OW 5559   1.668   2.118   1.871  0.4377  0.2378  0.0960
 1656SOL    HW1 5560   1.716   2.137   1.791 -0.6026 -2.4456 -1.2889
 1656SOL    HW2 5561   1.576   2.126   1.846  0.0899 -0.8680  0.9196
 1657SOL     OW 5562   4.572   3.618   2.794  0.1580  0.0093 -0.1203
 1657SOL    HW1 5563   4.646   3.610   2.733  0.5969 -1.8437  0.5824
 1657SOL    HW2 5564   4.610   3.599   2.880 -0.8890  0.3609  0.4304
 1658SOL     OW 5565   4.200   0.656   2.186  0.3464 -0.6804  0.1674
 1658SOL    HW1 5566   4.136   0.614   2.243 -0.1050 -0.4711 -0.1837
 1658SOL    HW2 5567   4.148   0.708   2.125  0.9102  0.9327  0.9974
 1659SOL     OW 5568   3.997   4.920   0.341  0.4110 -0.7091  1.2623
 1659SOL    HW1 5569   4.090   4.900   0.329  0.4464 -0.6057  1.3740
 1659SOL    HW2 5570   3.995   4.990   0.406  0.2798 -0.3895  0.9198
 1660SOL     OW 5571   2.304   1.024   3.053 -0.6624  0.4034 -0.4017
 1660SOL    HW1 5572   2.307   0.933   3.083 -0.1036  0.7432  0.6397
 1660SOL    HW2 5573   2.386   1.035   3.004 -0.2625  0.5973  0.2906
 1661SOL     OW 5574   4.717   4.427   2.529 -0.3042 -0.4015 -0.3286
 1661SOL    HW1 5575   4.662   4.500   2.557 -0.0905 -0.4041  0.1190
 1661SOL    HW2 5576   4.784   4.421   2.597  0.5731 -0.0462 -1.1393
 1662SOL     OW 5577   4.992   0.713   2.171  0.1416  0.2753  0.1068
 1662SOL    HW1 5578   4.902   0.739   2.154 -0.1239 -0.2878  0.5988
 1662SOL    HW2 5579   5.023   0.775   2.237  0.6947  1.5449 -1.2911
 1663SOL     OW 5580   0.475   3.294   0.513  0.0727  0.3415  0.3113
 1663SOL    HW1 5581   0.411   3.357   0.481  0.7005  1.6363  1.4704
 1663SOL    HW2 5582   0.535   3.346   0.567  2.9871 -0.4904 -1.8745
 1664SOL     OW 5583   4.988   1.336   3.220 -0.2536  0.4888  0.5013
 1664SOL    HW1 5584   4.955   1.384   3.296  1.1770  0.8750  0.9257
 1664SOL    HW2 5585   5.031   1.259   3.259  1.9872  1.5468  0.2869
 1665SOL     OW 5586   6.572   4.213   3.360  0.4216  0.1363 -0.5964
 1665SOL    HW1 5587   6.558   4.191   3.452  0.7740  0.4006 -0.4805
 1665SOL    HW2 5588   6.550   4.132   3.313  0.0899  0.0498 -0.2942
 1666SOL     OW 5589   4.643   3.377   1.739  0.0264  0.3012 -0.7111
 1666SOL    HW1 5590   4.586   3.453   1.753 -0.9847 -0.2187 -1.8415
 1666SOL    HW2 5591   4.585   3.309   1.707  1.1913 -0.4451 -1.3062
 1667SOL     OW 5592   0.502   4.629   3.118  0.0037 -0.1244 -0.1358
 1667SOL    HW1 5593   0.583   4.588   3.086  0.1973 -0.2464  0.5107
 1667SOL    HW2 5594   0.484   4.587   3.202 -1.0638 -0.5181 -0.5415
 1668SOL     OW 5595   2.846   2.638   0.705 -0.2734  0.0286  0.3214
 1668SOL    HW1 5596   2.910   2.567   0.699  1.5119  1.6742 -2.2145
 1668SOL    HW2 5597   2.798   2.634   0.622  0.2676  2.0447 -0.1498
 1669SOL     OW 5598   4.355   1.274   2.939 -0.1193  0.2798 -0.3966
 1669SOL    HW1 5599   4.358   1.181   2.919 -0.3310 -0.1446  1.3825
 1669SOL    HW2 5600   4.282   1.307   2.887  0.2371 -0.4376 -1.3837
 1670SOL     OW 5601   4.673   0.508   1.948 -0.0521 -0.1492  0.3903
 1670SOL    HW1 5602   4.591   0.459   1.947  0.2296 -0.7564 -2.8139
 1670SOL    HW2 5603   4.740   0.444   1.923  1.2856  0.5781  1.9209
 1671SOL     OW 5604   1.056   0.793   2.133  0.0967 -0.4166  0.4548
 1671SOL    HW1 5605   1.072   0.793   2.227 -0.6693 -2.6918  0.6514
 1671SOL    HW2 5606   1.087   0.707   2.104  0.1811  0.1785 -1.3703
 1672SOL     OW 5607   3.248   2.199   2.509 -0.0238 -0.1166  0.1392
 1672SOL    HW1 5608   3.322   2.243   2.467  1.0488 -1.5331  0.4500
 1672SOL    HW2 5609   3.188   2.270   2.532  0.9576  1.0187 -0.6630
 1673SOL     OW 5610   4.718   0.071   0.443  0.1365 -0.1129  0.4783
 1673SOL    HW1 5611   4.729   0.144   0.504 -2.3120  0.1799  0.6808
 1673SOL    HW2 5612   4.639   0.026   0.474  0.5492 -1.7629 -0.7310
 1674SOL     OW 5613   2.009   2.363   1.933  0.5860 -0.0670  0.1258
 1674SOL    HW1 5614   2.045   2.281   1.966  3.8789  1.1792 -0.0034
 1674SOL    HW2 5615   2.023   2.359   1.838  1.9582  1.0746  0.2410
 1675SOL     OW 5616   3.409   2.814   0.358  0.3660 -0.0891 -0.3382
 1675SOL    HW1 5617   3.344   2.881   0.338  0.1139 -0.2667 -0.1170
 1675SOL    HW2 5618   3.374   2.769   0.435  0.2789 -0.8088 -0.7894
 1676SOL     OW 5619   2.614   0.268   0.257 -0.2757  1.2761  0.4555
 1676SOL    HW1 5620   2.583   0.178   0.260  2.5894  0.2207  0.9461
 1676SOL    HW2 5621   2.564   0.308   0.185 -1.6965 -0.6068  0.3078
 1677SOL     OW 5622   6.787   3.371   3.091 -0.0902 -0.2945 -0.2012
 1677SOL    HW1 5623   6.790   3.412   3.005  0.5550 -0.3961 -0.2290
 1677SOL    HW2 5624   6.842   3.293   3.083  1.1353  0.4451  0.6921
 1678SOL     OW 5625   0.327   0.715   0.516 -0.3932 -0.1230  0.4755
 1678SOL    HW1 5626   0.294   0.804   0.524 -0.1680 -0.1998  3.2725
 1678SOL    HW2 5627   0.418   0.724   0.490 -1.0551  0.2940 -1.9214
 1679SOL     OW 5628   4.030   1.442   0.894 -0.1179  0.1587 -0.0345
 1679SOL    HW1 5629   4.112   1.478   0.860 -0.3326  0.5679 -0.1238
 1679SOL    HW2 5630   4.056   1.362   0.939  0.3719  0.4460  0.2057
 1680SOL     OW 5631   6.968   4.258   2.108  0.2581 -0.2525  0.3356
 1680SOL    HW1 5632   6.958   4.309   2.028  0.5816 -2.3748 -1.1496
 1680SOL    HW2 5633   7.063   4.256   2.123  0.1717  0.4877  1.0367
 1681SOL     OW 5634   0.760   3.317   3.320  0.2631 -0.2880 -0.0413
 1681SOL    HW1 5635   0.702   3.344   3.248 -0.8005 -0.5504  0.6870
 1681SOL    HW2 5636   0.742   3.224   3.330  1.9098 -0.7112 -0.7527
 1682SOL     OW 5637   6.493   0.230   1.127 -0.3433 -0.0104 -0.0984
 1682SOL    HW1 5638   6.428   0.298   1.142  0.6737  1.0719 -0.4057
 1682SOL    HW2 5639   6.451   0.148   1.155 -0.9393  0.9705  2.1090
 1683SOL     OW 5640   3.472   0.524   2.657 -0.4835  0.2307 -0.1206
 1683SOL    HW1 5641   3.499   0.469   2.584 -0.7319  0.1982 -0.1903
 1683SOL    HW2 5642   3.440   0.605   2.616 -1.4253 -0.1154 -0.1116
 1684SOL     OW 5643   5.713   5.118   2.465  0.0211  0.3216 -0.0346
 1684SOL    HW1 5644   5.776   5.066   2.416  0.1838  1.2897 -0.8850
 1684SOL    HW2 5645   5.642   5.057   2.485  0.7185 -0.5060 -0.0085
 1685SOL     OW 5646   1.472   1.609   3.358 -0.0673  0.0104 -0.0853
 1685SOL    HW1 5647   1.476   1.704   3.352  1.8837  0.0933  1.6080
 1685SOL    HW2 5648   1.545   1.585   3.415 -1.6948 -2.3601  1.1566
 1686SOL     OW 5649   0.187   0.467   0.504  0.0819  0.2453 -0.0487
 1686SOL    HW1 5650   0.197   0.561   0.524 -0.1954  0.6066 -1.5300
 1686SOL    HW2 5651   0.277   0.434   0.500  0.1769  0.4033  0.6475
 1687SOL     OW 5652   1.398   0.783   2.078  0.6808  0.1902  0.5285
 1687SOL    HW1 5653   1.310   0.756   2.050  1.7483 -1.6763 -1.2534
 1687SOL    HW2 5654   1.389   0.799   2.172 -1.9309  1.7629  0.0981
 1688SOL     OW 5655   4.022   0.847   1.423 -0.3243 -0.1477  0.0363
 1688SOL    HW1 5656   4.113   0.821   1.407 -0.1176  0.9591 -0.7668
 1688SOL    HW2 5657   4.029   0.931   1.469 -0.9235  0.3654 -0.7834
 1689SOL     OW 5658   6.322   2.735   2.347  0.3110 -0.3604  0.2182
 1689SOL    HW1 5659   6.252   2.703   2.404  0.1397 -1.6883 -0.6773
 1689SOL    HW2 5660   6.400   2.734   2.402  0.2065 -1.9095  0.3936
 1690SOL     OW 5661   2.852   0.859   0.262  0.1949 -0.0072  0.6794
 1690SOL    HW1 5662   2.859   0.924   0.332  0.8486  0.2647  0.3729
 1690SOL    HW2 5663   2.831   0.778   0.307 -0.2364  0.3341  1.1063
 1691SOL     OW 5664   6.123   1.618   2.357 -0.6919 -0.1383 -0.7590
 1691SOL    HW1 5665   6.212   1.625   2.322 -0.8569 -0.3565 -1.2352
 1691SOL    HW2 5666   6.100   1.526   2.345 -0.2232 -0.5498  1.2688
 1692SOL     OW 5667   5.415   4.994   2.880  0.1602  0.0857  0.1352
 1692SOL    HW1 5668   5.433   5.035   2.965 -1.5428  2.1899 -0.4211
 1692SOL    HW2 5669   5.452   5.054   2.816 -1.7728  0.4548 -0.7035
 1693SOL     OW 5670   1.256   0.713   2.694  0.2606 -0.0784 -0.3937
 1693SOL    HW1 5671   1.283   0.793   2.648 -0.2682 -0.7141 -1.8766
 1693SOL    HW2 5672   1.339   0.671   2.718  0.5472  0.9219  0.4615
 1694SOL     OW 5673   2.565   0.044   2.766  0.2443  0.1918  0.3751
 1694SOL    HW1 5674   2.558   0.138   2.746 -1.2921 -0.2936 -1.7392
 1694SOL    HW2 5675   2.600   0.005   2.685 -0.5011 -1.2174  0.7072
 1695SOL     OW 5676   3.608   2.921   1.530 -0.1266  0.6800 -0.0128
 1695SOL    HW1 5677   3.681   2.873   1.491 -0.3327  0.3014  0.0680
 1695SOL    HW2 5678   3.650   2.996   1.573  0.3524 -0.1733  1.0583
 1696SOL     OW 5679   4.570   0.150   2.466  0.3552 -0.0477  0.0865
 1696SOL    HW1 5680   4.581   0.205   2.544 -0.9129 -0.6226  0.6918
 1696SOL    HW2 5681   4.535   0.067   2.499  1.1137 -0.8210 -0.9487
 1697SOL     OW 5682   6.799   2.036   1.983 -0.1569 -0.0158 -0.3513
 1697SOL    HW1 5683   6.716   2.073   1.953  0.1961  1.0732 -0.0309
 1697SOL    HW2 5684   6.776   1.949   2.015 -0.8824 -0.4164 -1.8546
 1698SOL     OW 5685   1.543   0.050   0.652 -0.0073 -0.3526 -0.4018
 1698SOL    HW1 5686   1.610  -0.005   0.693  1.2109  1.1687 -0.2577
 1698SOL    HW2 5687   1.503   0.097   0.725  1.0787  1.1811 -0.7428
 1699SOL     OW 5688   1.024   3.679   2.494  0.1947  0.5346 -0.4123
 1699SOL    HW1 5689   0.934   3.695   2.522 -0.4136  0.6179 -2.3320
 1699SOL    HW2 5690   1.038   3.586   2.515  0.8071  1.2122  2.7709
 1700SOL     OW 5691   3.817   1.756   2.943 -0.0202 -0.4058  0.2199
 1700SOL    HW1 5692   3.798   1.803   2.862  0.6494 -0.6293 -0.0731
 1700SOL    HW2 5693   3.866   1.678   2.915  1.8533  0.4347  0.9600
 1701SOL     OW 5694   1.540   0.962   1.413  0.9512 -0.2303 -0.3023
 1701SOL    HW1 5695   1.634   0.946   1.411  1.2634  1.4911 -1.4794
 1701SOL    HW2 5696   1.530   1.054   1.387 -1.0441 -0.3211 -0.0596
 1702SOL     OW 5697   5.321   4.935   1.798  0.2247  0.1459  1.2219
 1702SOL    HW1 5698   5.344   4.996   1.727 -0.6955  2.7285  2.9887
 1702SOL    HW2 5699   5.373   4.857   1.780  1.1508  1.2532 -1.4509
 1703SOL     OW 5700   0.827   4.278   2.464 -0.4680  0.5655 -0.4535
 1703SOL    HW1 5701   0.922   4.262   2.462 -0.4831  0.4817 -0.4789
 1703SOL    HW2 5702   0.818   4.356   2.519 -0.2421  1.5420 -1.7511
 1704SOL     OW 5703   6.769   4.317   3.060 -0.1726 -0.2820  0.5633
 1704SOL    HW1 5704   6.854   4.283   3.089  0.4709  1.2589  0.5440
 1704SOL    HW2 5705   6.714   4.239   3.050  1.2662 -1.3155  0.4768
 1705SOL     OW 5706   5.517   4.766   1.641 -0.3188  0.0888  0.7734
 1705SOL    HW1 5707   5.519   4.774   1.546  0.6081  2.4477  0.9359
 1705SOL    HW2 5708   5.536   4.673   1.658  1.7950  0.0757 -1.2644
 1706SOL     OW 5709   3.307   0.572   1.768  0.3566  0.1702  0.0605
 1706SOL    HW1 5710   3.304   0.480   1.795  0.5454 -0.7062 -2.6192
 1706SOL    HW2 5711   3.238   0.580   1.702  0.2122  2.0439  0.3748
 1707SOL     OW 5712   1.866   1.930   3.373 -0.7078  0.4520 -0.5116
 1707SOL    HW1 5713   1.775   1.959   3.361 -0.8678 -0.7334 -2.5782
 1707SOL    HW2 5714   1.858   1.852   3.429 -1.0692 -0.1318 -1.3586
 1708SOL     OW 5715   6.657   2.035   3.467  0.3833 -0.9150  0.2411
 1708SOL    HW1 5716   6.575   2.082   3.479 -0.6307 -2.7941  1.1830
 1708SOL    HW2 5717   6.721   2.083   3.519 -0.3334  0.0473  0.2593
 1709SOL     OW 5718   1.924   2.940   1.975 -0.1777 -0.1706  0.3576
 1709SOL    HW1 5719   1.962   2.855   1.995 -1.5603 -0.6699  0.9423
 1709SOL    HW2 5720   1.946   2.994   2.051 -0.0134 -0.2406  0.3612
 1710SOL     OW 5721   0.826   3.944   2.787 -0.4673 -0.4308 -0.5633
 1710SOL    HW1 5722   0.833   4.035   2.759 -0.9403 -0.7258 -1.7063
 1710SOL    HW2 5723   0.915   3.910   2.778 -0.1177  0.1088  0.6365
 1711SOL     OW 5724   3.147   0.851   2.205 -0.3904 -0.4444  0.1674
 1711SOL    HW1 5725   3.073   0.888   2.157  0.2770 -0.1971 -0.6949
 1711SOL    HW2 5726   3.214   0.919   2.203  0.8145 -1.5991 -1.3330
 1712SOL     OW 5727   4.704   0.159   0.824  0.2257 -0.0377  0.1326
 1712SOL    HW1 5728   4.615   0.124   0.831  0.4967 -0.5425  1.2779
 1712SOL    HW2 5729   4.700   0.219   0.750 -0.7356 -1.0619 -0.6801
 1713SOL     OW 5730   4.543   2.331   0.729 -0.3798 -0.5150  0.0605
 1713SOL    HW1 5731   4.459   2.308   0.769 -0.0960 -0.9117  0.4364
 1713SOL    HW2 5732   4.544   2.427   0.731 -1.9728 -0.3664 -2.3390
 1714SOL     OW 5733   2.357   4.889   2.611  0.5565 -0.2221  0.2732
 1714SOL    HW1 5734   2.351   4.814   2.669  1.4708 -0.7257 -0.2756
 1714SOL    HW2 5735   2.390   4.854   2.529 -1.1262  0.4044 -0.7194
 1715SOL     OW 5736   5.030   2.657   1.291  0.3662  0.6370  0.1345
 1715SOL    HW1 5737   5.059   2.679   1.380 -0.9256  0.8030  0.5234
 1715SOL    HW2 5738   4.936   2.671   1.292 -0.2838 -2.7666 -0.1858
 1716SOL     OW 5739   7.266   1.722   3.242  0.2109 -0.0130 -0.1648
 1716SOL    HW1 5740   7.282   1.777   3.318 -1.9305  0.5419 -0.0621
 1716SOL    HW2 5741   7.197   1.662   3.269  0.9467 -1.2863 -0.9904
 1717SOL     OW 5742   2.118   4.464   0.180 -0.3742  0.3132 -0.0039
 1717SOL    HW1 5743   2.187   4.408   0.145  1.5218  2.1657  0.5936
 1717SOL    HW2 5744   2.052   4.402   0.212  1.4859 -1.6093  0.3989
 1718SOL     OW 5745   2.905   4.095   2.408  0.5215 -0.2151  0.0414
 1718SOL    HW1 5746   2.901   4.189   2.424 -0.2212  0.0381 -1.4916
 1718SOL    HW2 5747   2.997   4.072   2.422  0.8145  0.8310 -0.0733
 1719SOL     OW 5748   1.137   3.170   0.540 -0.1905 -0.1761  0.1369
 1719SOL    HW1 5749   1.201   3.116   0.586  1.3405  1.4759  0.0901
 1719SOL    HW2 5750   1.070   3.188   0.605  0.2347 -0.6025  0.7040
 1720SOL     OW 5751   3.506   3.384   3.448 -0.5371 -0.2605 -0.0677
 1720SOL    HW1 5752   3.537   3.305   3.404 -0.2242 -0.3107  0.2401
 1720SOL    HW2 5753   3.569   3.451   3.424 -1.4249  0.1781 -1.2548
 1721SOL     OW 5754   0.282   0.747   0.152  0.7938  0.6915 -0.1333
 1721SOL    HW1 5755   0.208   0.745   0.091 -0.1105  2.0214  0.8760
 1721SOL    HW2 5756   0.333   0.669   0.130 -0.4911  0.1537 -1.3595
 1722SOL     OW 5757   1.936   3.981   1.993  0.1895 -0.4632 -0.0397
 1722SOL    HW1 5758   1.871   3.995   1.924  0.5318  1.5929 -0.0095
 1722SOL    HW2 5759   1.885   3.976   2.074 -0.0064  0.3379 -0.1046
 1723SOL     OW 5760   3.088   2.766   1.159  0.7256  0.8413  0.4829
 1723SOL    HW1 5761   3.090   2.795   1.250  0.2874  0.2311  0.6881
 1723SOL    HW2 5762   3.129   2.680   1.160  1.3281  1.1099 -0.0102
 1724SOL     OW 5763   2.060   4.696   1.596 -0.1743 -0.5096  0.5557
 1724SOL    HW1 5764   2.127   4.717   1.661  0.9559 -2.1570 -0.0155
 1724SOL    HW2 5765   2.106   4.706   1.512 -1.1372 -0.0561  0.0712
 1725SOL     OW 5766   2.484   3.778   1.947 -0.2681  0.3436 -0.2402
 1725SOL    HW1 5767   2.403   3.728   1.947  0.0230 -0.5043  4.1964
 1725SOL    HW2 5768   2.540   3.732   1.884 -1.8040 -1.7123 -0.2018
 1726SOL     OW 5769   3.637   1.738   0.291 -0.1037 -0.1685 -0.1206
 1726SOL    HW1 5770   3.714   1.701   0.249 -0.2369 -0.7409  0.1342
 1726SOL    HW2 5771   3.575   1.750   0.219  0.3737  0.7115 -0.3971
 1727SOL     OW 5772   2.834   4.225   2.079 -0.2929  0.3182  0.4552
 1727SOL    HW1 5773   2.758   4.169   2.093 -0.4760  0.2003 -0.9247
 1727SOL    HW2 5774   2.833   4.285   2.154 -1.6321  0.2011  0.5645
 1728SOL     OW 5775   3.512   2.102   0.626  0.0697  0.4927  0.1111
 1728SOL    HW1 5776   3.491   2.195   0.640  0.1386  0.6194 -0.5941
 1728SOL    HW2 5777   3.451   2.075   0.557 -1.0326 -0.4080  1.3846
 1729SOL     OW 5778   6.301   2.971   0.288  0.4478 -0.2685  0.2546
 1729SOL    HW1 5779   6.297   2.877   0.306  0.2855 -0.0500  1.4848
 1729SOL    HW2 5780   6.281   2.979   0.195  0.3467 -1.4390  0.1600
 1730SOL     OW 5781   3.355   4.959   1.941 -0.9670  0.3191  0.3739
 1730SOL    HW1 5782   3.393   4.966   2.029 -0.3785  2.5067  0.0144
 1730SOL    HW2 5783   3.428   4.979   1.882 -0.4782 -4.1551 -0.9361
 1731SOL     OW 5784   5.590   3.028   0.783 -0.2316 -0.2717 -0.1291
 1731SOL    HW1 5785   5.548   2.947   0.813 -1.9836  0.2846 -0.9477
 1731SOL    HW2 5786   5.579   3.028   0.688  1.7069 -0.0900 -0.4113
 1732SOL     OW 5787   3.222   4.068   2.333  0.4282  0.4054 -0.4046
 1732SOL    HW1 5788   3.208   4.105   2.246 -1.2675  1.1776  0.1602
 1732SOL    HW2 5789   3.226   4.143   2.392  0.2968 -0.1553  0.3454
 1733SOL     OW 5790   6.220   4.655   1.161  0.4825  0.1750  0.0326
 1733SOL    HW1 5791   6.314   4.643   1.177  0.4844 -0.5188 -0.4893
 1733SOL    HW2 5792   6.192   4.713   1.232  0.9597 -1.0148  1.2330
 1734SOL     OW 5793   1.373   3.824   1.885  0.1799  0.2697 -0.0651
 1734SOL    HW1 5794   1.314   3.848   1.813  0.3867 -1.6157 -0.9247
 1734SOL    HW2 5795   1.316   3.781   1.949  0.2517  0.5255  0.1705
 1735SOL     OW 5796   2.264   3.625   1.915  0.4393  0.0753  0.2946
 1735SOL    HW1 5797   2.191   3.645   1.973  0.4788 -0.2164  0.4473
 1735SOL    HW2 5798   2.277   3.531   1.924  1.5954  0.2934  1.1924
 1736SOL     OW 5799   4.803   0.068   2.886 -0.1836  0.2143 -0.7110
 1736SOL    HW1 5800   4.729   0.049   2.827 -0.4680  2.1193 -1.0601
 1736SOL    HW2 5801   4.867   0.111   2.830  0.4857  0.0873 -0.0547
 1737SOL     OW 5802   2.974   4.293   0.874 -0.5013  0.3209 -0.7749
 1737SOL    HW1 5803   3.049   4.342   0.840 -0.8826  1.8389  0.4510
 1737SOL    HW2 5804   3.001   4.202   0.871  0.3317  0.5862 -2.9465
 1738SOL     OW 5805   4.229   4.825   0.258 -0.1123 -0.5640  0.5123
 1738SOL    HW1 5806   4.227   4.739   0.300 -0.1624 -0.6403  0.3547
 1738SOL    HW2 5807   4.311   4.826   0.209 -1.1782 -1.4739 -1.4484
 1739SOL     OW 5808   5.090   0.392   2.290 -0.0300  0.7625  0.3780
 1739SOL    HW1 5809   5.163   0.393   2.352 -0.6482  0.0990  1.1409
 1739SOL    HW2 5810   5.035   0.465   2.318 -0.5033  0.2257  0.8568
 1740SOL     OW 5811   0.980   2.007   2.958 -0.6525 -0.1799  0.4219
 1740SOL    HW1 5812   1.012   1.988   3.046  1.3122  0.9970  0.0308
 1740SOL    HW2 5813   0.903   2.063   2.972 -0.8291 -0.6449  1.3888
 1741SOL     OW 5814   1.655   2.101   3.334  0.1470 -0.2707  0.4456
 1741SOL    HW1 5815   1.657   2.116   3.239 -0.6623  0.2589  0.4970
 1741SOL    HW2 5816   1.617   2.181   3.370 -0.5869 -0.9005  1.1110
 1742SOL     OW 5817   3.940   5.063   0.638 -0.5922  0.2322 -0.2917
 1742SOL    HW1 5818   3.848   5.036   0.644  0.0783 -1.8504  1.4206
 1742SOL    HW2 5819   3.957   5.112   0.719  0.2670 -1.0003  0.3005
 1743SOL     OW 5820   1.272   2.990   0.210 -0.0341 -0.3898  0.2576
 1743SOL    HW1 5821   1.302   2.919   0.153 -0.0155  0.3984 -0.7617
 1743SOL    HW2 5822   1.330   2.988   0.286  0.5655 -0.8709 -0.2118
 1744SOL     OW 5823   7.081   2.839   2.656 -0.7022  0.2851  0.2638
 1744SOL    HW1 5824   7.100   2.880   2.571  0.2292  0.9471  0.7799
 1744SOL    HW2 5825   7.158   2.787   2.675 -1.0543 -0.1307  0.5534
 1745SOL     OW 5826   1.498   0.918   2.931  0.0637  0.3132 -0.6474
 1745SOL    HW1 5827   1.555   0.985   2.969 -1.7241  1.9875 -0.7420
 1745SOL    HW2 5828   1.422   0.915   2.990 -0.6691 -0.3828 -1.5876
 1746SOL     OW 5829   0.445   5.123   2.503 -0.1839  0.1083  0.3420
 1746SOL    HW1 5830   0.403   5.041   2.528  0.3028  0.0522  0.9994
 1746SOL    HW2 5831   0.434   5.181   2.578 -0.6542  0.7092 -0.1728
 1747SOL     OW 5832   5.867   0.341   2.003 -0.0599 -0.3065 -0.6094
 1747SOL    HW1 5833   5.831   0.399   1.936 -0.1475 -0.6150 -0.8336
 1747SOL    HW2 5834   5.922   0.397   2.057 -0.7936  0.1540 -0.3227
 1748SOL     OW 5835   5.938   4.989   2.359  0.1888 -0.1520 -0.0587
 1748SOL    HW1 5836   5.955   4.896   2.375  0.9817  0.0888  0.6073
 1748SOL    HW2 5837   5.941   4.998   2.264 -1.0284 -0.9964 -0.1983
 1749SOL     OW 5838   6.259   3.813   2.088  0.8075 -0.3388 -0.4677
 1749SOL    HW1 5839   6.271   3.907   2.101  2.8762 -0.7379  0.9417
 1749SOL    HW2 5840   6.271   3.774   2.175  2.8654 -2.1159 -1.4435
 1750SOL     OW 5841   4.882   4.927   0.480 -0.3262 -0.3790 -0.2702
 1750SOL    HW1 5842   4.877   4.847   0.532  1.7790 -1.5352 -1.7301
 1750SOL    HW2 5843   4.868   4.899   0.390  0.0870  0.9538 -0.7790
 1751SOL     OW 5844   7.114   1.856   1.431  0.4163 -0.1901 -0.1452
 1751SOL    HW1 5845   7.160   1.775   1.411 -0.1412 -0.2721 -1.1781
 1751SOL    HW2 5846   7.024   1.840   1.405 -0.0682  0.1913  1.2512
 1752SOL     OW 5847   6.838   1.817   1.470  0.4813 -0.0110  0.2007
 1752SOL    HW1 5848   6.840   1.912   1.486 -1.7906  0.0496  0.5658
 1752SOL    HW2 5849   6.782   1.783   1.540  1.0280 -1.5948 -0.1115
 1753SOL     OW 5850   3.776   0.502   2.601  0.5779 -0.3712  0.0836
 1753SOL    HW1 5851   3.712   0.487   2.671  1.1098 -1.0367  0.4374
 1753SOL    HW2 5852   3.810   0.415   2.581  0.4504 -0.1921 -0.9998
 1754SOL     OW 5853   2.791   1.169   1.504 -0.4795 -0.1897 -0.2404
 1754SOL    HW1 5854   2.807   1.191   1.413  1.5126  0.1300  0.1437
 1754SOL    HW2 5855   2.696   1.176   1.514 -0.4799  3.6469 -1.3240
 1755SOL     OW 5856   1.772   4.002   2.217 -0.5270 -0.0892 -0.5673
 1755SOL    HW1 5857   1.777   3.959   2.301  0.7768  0.2717 -0.4353
 1755SOL    HW2 5858   1.681   3.990   2.188 -1.6106  1.5991  1.8442
 1756SOL     OW 5859   4.710   0.329   2.314  0.2599 -0.4308 -0.3358
 1756SOL    HW1 5860   4.758   0.280   2.247 -1.4000 -1.2360 -0.9988
 1756SOL    HW2 5861   4.664   0.261   2.364 -2.3562  0.3519 -1.4777
 1757SOL     OW 5862   1.791   3.187   3.227 -0.2289  0.0428  0.1210
 1757SOL    HW1 5863   1.699   3.182   3.251  0.3246 -0.7425  2.2476
 1757SOL    HW2 5864   1.814   3.280   3.238 -0.9705  0.4482 -1.4314
 1758SOL     OW 5865   6.671   2.695   1.701  0.3166 -0.2699  0.2496
 1758SOL    HW1 5866   6.710   2.615   1.736  0.4944 -0.1345  0.3600
 1758SOL    HW2 5867   6.744   2.741   1.660  0.0343 -0.6371 -0.6926
 1759SOL     OW 5868   4.643   2.159   3.139 -0.6796  0.0759 -0.2283
 1759SOL    HW1 5869   4.705   2.090   3.164  0.8345  1.9493  1.5709
 1759SOL    HW2 5870   4.572   2.151   3.203 -1.0221 -0.4445 -0.6684
 1760SOL     OW 5871   6.090   0.828   1.179 -0.1390  0.2254  0.1044
 1760SOL    HW1 5872   6.024   0.781   1.127 -1.2385  1.5439  0.2503
 1760SOL    HW2 5873   6.093   0.780   1.262  0.2246 -0.7527 -0.4523
 1761SOL     OW 5874   7.284   4.537   0.830  0.3073  0.0485 -0.0104
 1761SOL    HW1 5875   7.330   4.503   0.753 -0.2562  0.0989 -0.3765
 1761SOL    HW2 5876   7.216   4.472   0.849 -0.3746  0.6415 -0.3377
 1762SOL     OW 5877   4.640   0.133   0.204  0.1203 -0.5682  0.0474
 1762SOL    HW1 5878   4.576   0.203   0.217 -0.1876 -0.6620 -0.8796
 1762SOL    HW2 5879   4.673   0.114   0.292 -1.4057 -0.7970  0.6088
 1763SOL     OW 5880   3.327   0.851   0.347  0.1498 -0.0173  0.1790
 1763SOL    HW1 5881   3.286   0.862   0.261  0.0596 -2.2438 -0.0986
 1763SOL    HW2 5882   3.386   0.776   0.337  0.4705 -0.0406  1.9487
 1764SOL     OW 5883   1.043   4.088   0.504 -0.5758 -0.4667 -0.1767
 1764SOL    HW1 5884   1.084   4.164   0.463 -0.0787  0.8042  2.5003
 1764SOL    HW2 5885   0.971   4.124   0.555 -0.1177 -1.7119  1.4215
 1765SOL     OW 5886   3.658   1.627   3.299  0.3986 -0.4913  0.2626
 1765SOL    HW1 5887   3.619   1.670   3.223  0.9694  1.3188  0.9201
 1765SOL    HW2 5888   3.584   1.593   3.349 -0.0028 -1.2679 -0.8418
 1766SOL     OW 5889   6.606   5.058   0.113  0.5262 -0.0558  0.4505
 1766SOL    HW1 5890   6.584   5.103   0.195  0.5594 -0.1852  0.5313
 1766SOL    HW2 5891   6.619   4.967   0.139  0.7693 -0.0538  0.3391
 1767SOL     OW 5892   7.108   0.879   0.442  0.1354  0.2349 -0.1206
 1767SOL    HW1 5893   7.159   0.820   0.498  0.8064  0.4359 -0.5099
 1767SOL    HW2 5894   7.068   0.821   0.377 -0.2072  0.0661  0.2361
 1768SOL     OW 5895   2.783   2.412   3.308  0.3534 -0.1228 -0.3882
 1768SOL    HW1 5896   2.726   2.337   3.327 -0.6229  0.6592 -0.1796
 1768SOL    HW2 5897   2.784   2.418   3.212 -2.2372  1.5590 -0.3906
 1769SOL     OW 5898   7.289   3.998   0.585  0.1859 -0.5664  0.2228
 1769SOL    HW1 5899   7.383   3.978   0.582  0.1917 -0.4748 -0.2472
 1769SOL    HW2 5900   7.282   4.073   0.644  0.3934 -0.6513  0.3570
 1770SOL     OW 5901   4.334   3.956   2.091  0.0340  0.4239 -0.2726
 1770SOL    HW1 5902   4.343   4.049   2.068  0.0010  0.5914  0.3774
 1770SOL    HW2 5903   4.409   3.938   2.147 -0.2828  0.2046  0.0823
 1771SOL     OW 5904   2.482   3.009   0.355  0.5578 -0.1249 -0.5760
 1771SOL    HW1 5905   2.453   3.031   0.267  1.7625 -0.4906 -1.0902
 1771SOL    HW2 5906   2.556   3.069   0.371 -0.8824  1.3422  0.9941
 1772SOL     OW 5907   2.075   2.524   0.757 -0.7099  0.0108  0.3532
 1772SOL    HW1 5908   2.105   2.614   0.770 -1.1503 -0.0011  1.6034
 1772SOL    HW2 5909   1.998   2.516   0.814  0.8697 -1.9477  2.3919
 1773SOL     OW 5910   3.589   4.740   1.984 -0.5180  0.4127  0.5175
 1773SOL    HW1 5911   3.649   4.807   2.018 -0.2728  0.5346 -0.1320
 1773SOL    HW2 5912   3.507   4.755   2.031 -0.3681  0.9694  0.6132
 1774SOL     OW 5913   3.262   4.762   3.385 -0.2491  0.7639 -0.1362
 1774SOL    HW1 5914   3.236   4.822   3.315  0.0692  0.9373 -0.1048
 1774SOL    HW2 5915   3.345   4.725   3.356  0.4871  1.7219  0.6834
 1775SOL     OW 5916   1.923   3.156   1.479 -0.6428  0.1879 -0.2619
 1775SOL    HW1 5917   1.828   3.161   1.467 -0.6750  0.2235 -0.0094
 1775SOL    HW2 5918   1.933   3.131   1.571 -0.3944  0.7889 -0.1247
 1776SOL     OW 5919   4.790   2.499   1.888  0.5770 -0.1441 -0.8909
 1776SOL    HW1 5920   4.760   2.410   1.871 -1.1662  0.3361 -0.5633
 1776SOL    HW2 5921   4.742   2.526   1.966  1.6930  0.8091 -0.4961
 1777SOL     OW 5922   1.887   1.913   1.559  0.4141 -0.5260  0.4332
 1777SOL    HW1 5923   1.854   1.880   1.642 -1.1330 -1.4618 -0.5160
 1777SOL    HW2 5924   1.875   1.841   1.498 -0.8257  0.9627 -1.1661
 1778SOL     OW 5925   3.812   2.015   3.446 -0.0007 -0.1516  0.1037
 1778SOL    HW1 5926   3.731   2.056   3.417 -1.0391 -2.5006 -0.5294
 1778SOL    HW2 5927   3.849   1.977   3.367  1.3044  0.1423  0.5445
 1779SOL     OW 5928   0.241   1.301   2.277  0.6419 -0.2425  0.3026
 1779SOL    HW1 5929   0.208   1.212   2.265 -1.1300  0.0023  2.6457
 1779SOL    HW2 5930   0.163   1.353   2.297  1.8485  1.4640  0.7980
 1780SOL     OW 5931   3.190   1.230   0.903 -0.1996  0.2071 -0.1087
 1780SOL    HW1 5932   3.271   1.248   0.854 -0.3706  0.0091 -0.4672
 1780SOL    HW2 5933   3.157   1.149   0.865 -0.7803  0.5018 -0.2293
 1781SOL     OW 5934   1.897   1.921   0.533  0.1636  0.0342 -0.1882
 1781SOL    HW1 5935   1.884   1.884   0.620  0.2596  0.0459 -0.1685
 1781SOL    HW2 5936   1.991   1.938   0.528  0.0133  0.9969  0.0880
 1782SOL     OW 5937   0.088   2.127   1.260  0.0888 -0.4018 -0.3182
 1782SOL    HW1 5938   0.068   2.193   1.326  1.4232  1.1667 -1.4105
 1782SOL    HW2 5939   0.102   2.047   1.310  3.7867  1.2598  1.7301
 1783SOL     OW 5940   1.592   4.393   0.466 -0.2821  0.3467  0.2512
 1783SOL    HW1 5941   1.642   4.421   0.389 -0.8084  0.2698 -0.1169
 1783SOL    HW2 5942   1.659   4.373   0.531  0.1532  1.2019  0.0907
 1784SOL     OW 5943   5.733   1.971   0.776  0.2049  0.0211  0.0623
 1784SOL    HW1 5944   5.650   1.940   0.739 -0.5676  2.2344 -0.2465
 1784SOL    HW2 5945   5.757   2.045   0.720  2.2202 -0.3462  0.3844
 1785SOL     OW 5946   3.091   4.579   1.169 -0.9901 -0.1087  0.1380
 1785SOL    HW1 5947   3.062   4.670   1.169  1.1543  0.6555 -0.6150
 1785SOL    HW2 5948   3.104   4.557   1.261 -3.5178 -0.4164  0.4867
 1786SOL     OW 5949   0.400   2.609   0.101  0.1042 -0.0482  0.4616
 1786SOL    HW1 5950   0.447   2.572   0.026 -1.1099  1.8866 -1.3713
 1786SOL    HW2 5951   0.469   2.650   0.153  0.9733 -1.3853  0.4340
 1787SOL     OW 5952   6.886   0.754   2.674 -0.5093  0.1750  0.7820
 1787SOL    HW1 5953   6.813   0.693   2.682  0.9330 -1.7003  0.5261
 1787SOL    HW2 5954   6.954   0.717   2.731  1.7667 -0.6636 -2.2018
 1788SOL     OW 5955   5.358   0.751   0.259  0.0348 -0.1227  0.5879
 1788SOL    HW1 5956   5.351   0.828   0.202  1.3175 -0.7063 -0.4252
 1788SOL    HW2 5957   5.268   0.727   0.279 -0.4213  0.6905 -0.4042
 1789SOL     OW 5958   4.366   3.504   1.026  0.0521  0.8813 -0.6395
 1789SOL    HW1 5959   4.445   3.556   1.040  1.3480 -1.1547  0.0364
 1789SOL    HW2 5960   4.312   3.521   1.103  0.7480  0.7342 -0.1081
 1790SOL     OW 5961   3.695   1.298   2.727  0.7102  0.4608 -0.1557
 1790SOL    HW1 5962   3.647   1.224   2.690  0.2995 -0.2726  1.7252
 1790SOL    HW2 5963   3.737   1.339   2.652  0.7002 -1.4902 -1.3003
 1791SOL     OW 5964   1.641   3.778   0.250 -0.3950 -0.5008 -0.1159
 1791SOL    HW1 5965   1.592   3.860   0.242 -2.4542 -1.5986  0.3789
 1791SOL    HW2 5966   1.715   3.788   0.190 -2.8045  0.1602 -3.2459
 1792SOL     OW 5967   3.328   4.514   1.891 -0.2380  0.4803 -0.6555
 1792SOL    HW1 5968   3.370   4.565   1.822  0.3240  0.3250 -0.4325
 1792SOL    HW2 5969   3.299   4.579   1.954  2.2269  0.4779  0.6153
 1793SOL     OW 5970   4.287   1.540   0.801 -0.0148 -0.6123  0.4938
 1793SOL    HW1 5971   4.339   1.620   0.810 -0.9252 -0.1700  2.1956
 1793SOL    HW2 5972   4.273   1.531   0.706  0.4055  1.0544  0.2472
 1794SOL     OW 5973   7.214   3.264   0.709  0.0566  0.2625 -0.1901
 1794SOL    HW1 5974   7.200   3.319   0.786  0.8956  0.1201  0.0741
 1794SOL    HW2 5975   7.129   3.223   0.693 -0.2558  0.6897  0.3523
 1795SOL     OW 5976   1.809   2.495   0.809  0.5172  0.0924  0.0264
 1795SOL    HW1 5977   1.771   2.435   0.745 -0.9888  0.3629  0.6277
 1795SOL    HW2 5978   1.764   2.473   0.891 -1.0660  2.8761  0.0095
 1796SOL     OW 5979   1.603   2.955   1.653 -0.1819 -0.0328 -0.2417
 1796SOL    HW1 5980   1.604   3.050   1.664 -0.8760  0.1076 -1.2121
 1796SOL    HW2 5981   1.655   2.921   1.726 -0.9867  1.0093  0.8483
 1797SOL     OW 5982   3.075   2.836   0.687  0.2854 -0.1706 -0.1909
 1797SOL    HW1 5983   3.039   2.889   0.617  1.4368 -0.8745 -1.3791
 1797SOL    HW2 5984   3.004   2.778   0.714 -1.2283  2.3494  1.6461
 1798SOL     OW 5985   7.032   2.993   1.230  0.4965 -0.0649  0.4405
 1798SOL    HW1 5986   6.997   3.031   1.149 -1.9942 -1.3087  0.8296
 1798SOL    HW2 5987   7.042   2.900   1.209 -0.2578 -0.4147  1.5595
 1799SOL     OW 5988   3.304   3.033   2.738 -0.2643 -0.2935  0.2862
 1799SOL    HW1 5989   3.270   3.122   2.748 -1.2982 -0.2131 -2.9359
 1799SOL    HW2 5990   3.228   2.977   2.753  0.4180 -0.7573  2.4662
 1800SOL     OW 5991   3.385   3.110   0.097  0.5486 -0.8108  0.6960
 1800SOL    HW1 5992   3.455   3.121   0.032 -2.0996  2.6340 -1.9859
 1800SOL    HW2 5993   3.320   3.056   0.052 -1.1341  1.2582  0.4884
 1801SOL     OW 5994   2.758   1.505   1.170  0.2649 -0.4822  0.2620
 1801SOL    HW1 5995   2.710   1.423   1.157 -0.3928  0.2290 -2.2236
 1801SOL    HW2 5996   2.849   1.483   1.148  0.0233 -0.4785 -0.7856
 1802SOL     OW 5997   3.832   3.549   0.217  0.2781 -0.3543  0.3359
 1802SOL    HW1 5998   3.774   3.478   0.189 -0.9070  0.7770 -0.2162
 1802SOL    HW2 5999   3.837   3.540   0.312 -1.2309 -0.2160  0.4619
 1803SOL     OW 6000   3.989   0.617   1.968  0.0041 -0.5765 -0.0006
 1803SOL    HW1 6001   3.895   0.620   1.947  0.1835 -1.2186 -0.9449
 1803SOL    HW2 6002   4.033   0.634   1.884  0.7402  0.8232  0.6400
 1804SOL     OW 6003   6.043   0.189   2.673  0.6395  0.2938 -0.4374
 1804SOL    HW1 6004   5.971   0.154   2.621  1.1019 -2.4911  0.6219
 1804SOL    HW2 6005   6.086   0.252   2.614 -1.9109  1.2157 -1.4734
 1805SOL     OW 6006   2.824   0.579   0.335  0.1312 -1.3440 -0.7962
 1805SOL    HW1 6007   2.901   0.554   0.386  0.1774  1.6498  0.8377
 1805SOL    HW2 6008   2.752   0.530   0.374  0.4057 -0.1679  1.3395
 1806SOL     OW 6009   6.625   1.536   2.256  0.3963  0.5349  0.2196
 1806SOL    HW1 6010   6.652   1.473   2.189 -0.3995  0.4365 -0.0261
 1806SOL    HW2 6011   6.670   1.507   2.335  1.3542  0.6573 -0.2666
 1807SOL     OW 6012   3.173   2.779   1.635  0.3493  0.2094 -0.4390
 1807SOL    HW1 6013   3.133   2.833   1.703  0.5882 -1.4535  1.1312
 1807SOL    HW2 6014   3.265   2.771   1.662  1.1840  1.8169 -2.5573
 1808SOL     OW 6015   7.343   3.805   1.400  0.0343 -0.7377 -0.0445
 1808SOL    HW1 6016   7.430   3.801   1.438  0.1532 -0.7068 -0.3153
 1808SOL    HW2 6017   7.346   3.878   1.338 -0.7037  0.4610  1.2647
 1809SOL     OW 6018   1.280   4.169   1.206  0.6955  0.1287 -1.1472
 1809SOL    HW1 6019   1.317   4.249   1.243 -0.7933  1.7713 -2.9984
 1809SOL    HW2 6020   1.190   4.167   1.238  0.6102 -0.6061 -1.4200
 1810SOL     OW 6021   1.144   1.772   0.452  0.9244 -0.3377 -0.1619
 1810SOL    HW1 6022   1.154   1.726   0.369  1.1520 -2.4221  0.9369
 1810SOL    HW2 6023   1.055   1.806   0.451  0.7077 -0.9195 -0.9883
 1811SOL     OW 6024   6.154   3.705   0.588  0.4085  0.1886 -0.0937
 1811SOL    HW1 6025   6.150   3.662   0.673  1.5239 -0.9909 -0.5932
 1811SOL    HW2 6026   6.081   3.767   0.588 -0.5767 -0.9297  1.0953
 1812SOL     OW 6027   0.444   1.354   0.846  0.3116 -0.6560 -0.2018
 1812SOL    HW1 6028   0.409   1.365   0.934  1.8742  2.9357  0.1324
 1812SOL    HW2 6029   0.519   1.297   0.856 -0.6373 -1.8224  0.4266
 1813SOL     OW 6030   2.737   0.447   0.060  0.2540 -0.1559  0.2168
 1813SOL    HW1 6031   2.807   0.507   0.037 -0.1888  0.7603  1.1502
 1813SOL    HW2 6032   2.760   0.415   0.148 -0.8166  0.7107  0.8486
 1814SOL     OW 6033   0.706   5.115   0.867 -0.4483  0.5157  0.3286
 1814SOL    HW1 6034   0.641   5.051   0.838 -0.3456  0.8481 -0.7018
 1814SOL    HW2 6035   0.672   5.199   0.835  0.4197  0.7054 -0.1203
 1815SOL     OW 6036   2.547   3.769   2.914 -0.3460 -0.2002 -0.2097
 1815SOL    HW1 6037   2.618   3.715   2.880 -0.4536 -2.2306  2.4743
 1815SOL    HW2 6038   2.586   3.816   2.988 -1.1214  0.8193 -0.4308
 1816SOL     OW 6039   5.417   1.660   2.406  0.0629  0.0335  0.3340
 1816SOL    HW1 6040   5.409   1.632   2.497 -0.7856 -0.7741  0.0300
 1816SOL    HW2 6041   5.387   1.751   2.407  0.7266  0.2550  0.9671
 1817SOL     OW 6042   1.892   0.698   1.752 -0.2602  0.0120  0.5581
 1817SOL    HW1 6043   1.923   0.620   1.706  0.4354  0.7971 -0.3320
 1817SOL    HW2 6044   1.797   0.695   1.742 -0.1938 -0.3709 -0.0417
 1818SOL     OW 6045   4.089   1.000   0.408  0.0632 -0.5720  0.8524
 1818SOL    HW1 6046   4.052   1.076   0.362  0.2880 -0.7054  0.4489
 1818SOL    HW2 6047   4.180   1.025   0.426  0.0886 -0.6793  0.8723
 1819SOL     OW 6048   3.972   4.501   2.122  0.4009 -0.2285 -0.3082
 1819SOL    HW1 6049   3.993   4.424   2.175  1.7095 -0.9992 -1.8408
 1819SOL    HW2 6050   3.998   4.575   2.177  0.8808 -0.9495  0.4732
 1820SOL     OW 6051   0.763   2.793   2.551  0.3330  0.3641 -0.1023
 1820SOL    HW1 6052   0.687   2.808   2.607 -0.8535  1.9449 -2.0048
 1820SOL    HW2 6053   0.768   2.698   2.542 -0.8305  0.1862  0.8232
 1821SOL     OW 6054   2.824   5.040   2.066 -0.2091  0.0412  0.7286
 1821SOL    HW1 6055   2.764   5.085   2.006 -0.3916 -0.8769  0.2145
 1821SOL    HW2 6056   2.902   5.024   2.014 -0.7019 -1.5575  0.4477
 1822SOL     OW 6057   2.483   0.526   1.653  1.0888 -0.1501  0.3846
 1822SOL    HW1 6058   2.393   0.535   1.683  0.1176  2.1391 -2.7384
 1822SOL    HW2 6059   2.498   0.431   1.651 -1.4536 -0.6172  0.5152
 1823SOL     OW 6060   3.685   0.957   1.937  0.3756  0.2789 -0.1083
 1823SOL    HW1 6061   3.621   0.921   1.999 -1.4146  1.9787 -0.8609
 1823SOL    HW2 6062   3.769   0.950   1.982 -0.1035 -2.9971  0.5138
 1824SOL     OW 6063   1.003   0.648   3.459 -0.0915 -0.3025 -0.4651
 1824SOL    HW1 6064   0.953   0.568   3.476 -0.0199  0.2766  3.2358
 1824SOL    HW2 6065   1.081   0.639   3.513 -0.5349  2.6303  0.8304
 1825SOL     OW 6066   1.992   4.201   1.687  0.0297 -0.0171 -0.4980
 1825SOL    HW1 6067   2.016   4.257   1.760 -1.0065 -0.6642  0.3705
 1825SOL    HW2 6068   1.897   4.196   1.691  0.0484 -1.1426 -1.0757
 1826SOL     OW 6069   1.216   4.715   2.138  0.4840  0.4641 -0.2557
 1826SOL    HW1 6070   1.172   4.656   2.198  2.3066 -0.8587 -0.1364
 1826SOL    HW2 6071   1.308   4.689   2.142  1.3593  3.2062 -0.3376
 1827SOL     OW 6072   3.138   1.122   0.214  0.1052  0.4824  0.7695
 1827SOL    HW1 6073   3.119   1.151   0.303 -0.6249 -2.2258  1.6000
 1827SOL    HW2 6074   3.195   1.190   0.178  0.3079  1.7261  3.2270
 1828SOL     OW 6075   7.288   1.868   3.451 -0.1389 -0.1090  0.1778
 1828SOL    HW1 6076   7.330   1.953   3.468 -1.7467  0.6589  0.4958
 1828SOL    HW2 6077   7.211   1.868   3.507 -1.2509 -0.9243 -1.2832
 1829SOL     OW 6078   0.907   0.696   3.036 -0.1264 -0.0633 -0.2757
 1829SOL    HW1 6079   0.872   0.631   2.975 -0.3332  0.5077 -0.7815
 1829SOL    HW2 6080   0.963   0.752   2.982  1.0056 -0.5355  0.3953
 1830SOL     OW 6081   1.138   2.290   2.318 -0.3225  0.3427  0.1727
 1830SOL    HW1 6082   1.059   2.244   2.292 -0.9906  1.4437  0.1723
 1830SOL    HW2 6083   1.192   2.224   2.361 -1.0583 -0.5149 -0.2012
 1831SOL     OW 6084   6.185   2.478   0.770  0.9454  0.0995 -0.0847
 1831SOL    HW1 6085   6.188   2.552   0.831  0.6440 -1.0339  1.3596
 1831SOL    HW2 6086   6.212   2.403   0.822  0.3143 -0.9842 -1.2626
 1832SOL     OW 6087   1.813   0.757   3.357 -0.1257 -0.3301 -0.6009
 1832SOL    HW1 6088   1.775   0.776   3.271 -0.7459 -0.3839 -0.3467
 1832SOL    HW2 6089   1.809   0.662   3.364 -1.2982 -0.2522  0.0187
 1833SOL     OW 6090   1.889   0.928   1.176 -0.1615 -0.0721  0.2248
 1833SOL    HW1 6091   1.945   0.962   1.106  0.2943 -1.1887  0.0226
 1833SOL    HW2 6092   1.825   0.872   1.132 -0.0771 -0.5227  0.6523
 1834SOL     OW 6093   3.716   3.982   2.491 -0.3220 -0.1342  0.5152
 1834SOL    HW1 6094   3.733   3.969   2.397 -0.8871 -1.2093  0.5438
 1834SOL    HW2 6095   3.721   3.894   2.528 -2.5081 -0.0650  1.0835
 1835SOL     OW 6096   5.688   3.196   1.339 -0.3463  0.5964 -0.1806
 1835SOL    HW1 6097   5.618   3.212   1.276  1.3381  2.9389 -1.6114
 1835SOL    HW2 6098   5.734   3.280   1.347  2.0947 -0.7217  0.9355
 1836SOL     OW 6099   1.653   2.670   3.220  0.0497  0.5112  0.6676
 1836SOL    HW1 6100   1.602   2.722   3.158  0.1409 -1.3544 -1.0560
 1836SOL    HW2 6101   1.703   2.609   3.166  0.4072 -0.9845  2.5572
 1837SOL     OW 6102   0.138   4.794   3.046  0.8141  0.1328  1.0316
 1837SOL    HW1 6103   0.173   4.707   3.025  0.0549 -0.4410  2.0633
 1837SOL    HW2 6104   0.096   4.823   2.965  1.6423 -0.1630  0.4800
 1838SOL     OW 6105   3.849   3.141   0.686 -0.5356  0.5412  0.5926
 1838SOL    HW1 6106   3.759   3.120   0.662 -0.8850  1.2533  1.2612
 1838SOL    HW2 6107   3.892   3.161   0.602 -0.3675 -2.0130  0.0001
 1839SOL     OW 6108   5.586   1.125   1.207 -0.3001 -0.7300  0.7635
 1839SOL    HW1 6109   5.661   1.089   1.159 -0.4761 -0.3471  0.2004
 1839SOL    HW2 6110   5.625   1.175   1.278 -0.0342 -1.0315  0.8330
 1840SOL     OW 6111   2.561   3.089   1.258 -0.0742  0.1685  0.2726
 1840SOL    HW1 6112   2.551   3.097   1.163  1.8545  1.7645  0.1536
 1840SOL    HW2 6113   2.651   3.058   1.270 -1.1623 -2.9079  1.5518
 1841SOL     OW 6114   3.491   1.503   0.763  0.5138  0.1081  0.6070
 1841SOL    HW1 6115   3.483   1.521   0.856 -0.5375 -1.0124  0.7526
 1841SOL    HW2 6116   3.479   1.408   0.755 -1.4119  0.4102 -0.8512
 1842SOL     OW 6117   0.875   5.089   1.104  0.4089  0.0034  0.2069
 1842SOL    HW1 6118   0.795   5.081   1.052 -0.3178  0.0321  1.2827
 1842SOL    HW2 6119   0.924   5.009   1.085 -0.5374 -0.6975  0.5951
 1843SOL     OW 6120   6.589   2.107   1.670  0.2934  0.7080 -0.0279
 1843SOL    HW1 6121   6.660   2.101   1.606 -0.5039 -1.5167 -0.8195
 1843SOL    HW2 6122   6.549   2.192   1.653  1.3359  1.0177 -1.1199
 1844SOL     OW 6123   3.310   4.034   0.935  0.0262  0.6085  0.4146
 1844SOL    HW1 6124   3.347   4.119   0.959  0.1228  0.6202  0.2260
 1844SOL    HW2 6125   3.371   3.970   0.973 -0.2786  0.6176  0.9257
 1845SOL     OW 6126   6.543   2.649   2.488 -0.2449  0.3451 -0.4458
 1845SOL    HW1 6127   6.532   2.563   2.528 -1.0105  0.4189 -0.4836
 1845SOL    HW2 6128   6.633   2.648   2.454  1.0304  0.8806  2.6328
 1846SOL     OW 6129   2.138   1.582   1.577 -0.9530  0.7631 -0.1184
 1846SOL    HW1 6130   2.124   1.540   1.492 -0.6771 -1.8914  1.0783
 1846SOL    HW2 6131   2.223   1.626   1.567 -0.1451 -0.8504 -0.7546
 1847SOL     OW 6132   5.998   5.192   3.050 -0.5845 -0.0934 -0.2026
 1847SOL    HW1 6133   6.010   5.124   2.984 -1.0333 -1.0622  0.6737
 1847SOL    HW2 6134   5.930   5.249   3.015 -0.0457  0.0298 -1.0487
 1848SOL     OW 6135   1.481   2.222   0.799  0.5171 -0.0942  0.7084
 1848SOL    HW1 6136   1.386   2.230   0.806  0.2884 -0.3595 -1.4279
 1848SOL    HW2 6137   1.495   2.150   0.737  2.0000  1.6031 -1.1011
 1849SOL     OW 6138   1.015   3.116   3.468  0.1280  0.1689 -0.1783
 1849SOL    HW1 6139   1.083   3.049   3.467 -0.8736 -0.9567  1.5411
 1849SOL    HW2 6140   0.980   3.113   3.557 -1.7860  1.0980 -0.8500
 1850SOL     OW 6141   1.192   3.322   1.301 -0.1372 -0.2125  0.4434
 1850SOL    HW1 6142   1.161   3.260   1.367 -2.2526 -1.0786 -1.2523
 1850SOL    HW2 6143   1.240   3.268   1.238 -0.0678  0.2247  0.1140
 1851SOL     OW 6144   0.382   3.373   1.794  0.2104  0.0797  0.4376
 1851SOL    HW1 6145   0.321   3.445   1.782  1.0621  0.7823  0.2629
 1851SOL    HW2 6146   0.466   3.407   1.764  0.4534 -1.2817 -0.5308
 1852SOL     OW 6147   4.075   1.790   2.120 -0.1004 -0.5480  0.3094
 1852SOL    HW1 6148   4.152   1.831   2.158  0.6793 -1.5354 -0.1500
 1852SOL    HW2 6149   4.043   1.732   2.189 -1.0534  0.5939  0.8665
 1853SOL     OW 6150   3.090   3.602   0.476  0.1927  0.3895  0.5344
 1853SOL    HW1 6151   3.171   3.630   0.433 -0.1443 -0.9003 -1.0000
 1853SOL    HW2 6152   3.088   3.507   0.464  0.1137 -0.0908  3.5147
 1854SOL     OW 6153   4.495   5.248   0.391  0.5016 -0.0260  0.0133
 1854SOL    HW1 6154   4.496   5.269   0.298 -2.8607 -2.5022 -0.7914
 1854SOL    HW2 6155   4.530   5.159   0.396  1.1570  0.2864  1.2005
 1855SOL     OW 6156   1.910   0.859   2.448 -0.0920 -0.6636 -0.4449
 1855SOL    HW1 6157   1.891   0.942   2.491  1.8373 -0.7693  0.7195
 1855SOL    HW2 6158   1.914   0.880   2.355  2.6373  1.0950 -0.0288
 1856SOL     OW 6159   4.584   3.091   3.104 -0.6376 -0.3802  0.0028
 1856SOL    HW1 6160   4.590   3.075   3.010  0.5385  0.2321 -0.0549
 1856SOL    HW2 6161   4.641   3.025   3.143  0.9022  0.9293  0.0700
 1857SOL     OW 6162   0.881   0.379   3.456  0.2910  0.1083 -0.1185
 1857SOL    HW1 6163   0.888   0.304   3.515 -1.2774  0.3758  0.4354
 1857SOL    HW2 6164   0.802   0.363   3.406  0.2427  1.1266 -0.3792
 1858SOL     OW 6165   3.522   3.539   2.648 -0.1917  0.0944  0.1972
 1858SOL    HW1 6166   3.479   3.543   2.563  1.6619  1.7781 -0.7530
 1858SOL    HW2 6167   3.471   3.599   2.703 -0.6457 -0.0136 -0.1040
 1859SOL     OW 6168   3.283   1.016   0.564 -0.3516 -0.1278 -0.2073
 1859SOL    HW1 6169   3.305   0.962   0.640 -3.4353 -2.5810 -0.8600
 1859SOL    HW2 6170   3.273   0.954   0.492 -1.6449  1.6044 -1.6134
 1860SOL     OW 6171   5.035   2.047   1.398 -0.1397 -0.0364 -0.2741
 1860SOL    HW1 6172   4.999   2.131   1.370 -1.8665 -0.0380  1.6822
 1860SOL    HW2 6173   5.077   2.067   1.482 -2.7382 -1.4554  1.5025
 1861SOL     OW 6174   4.980   2.048   2.185  0.2535 -0.0163  0.5063
 1861SOL    HW1 6175   5.055   2.006   2.143 -0.1153  1.3831 -1.6643
 1861SOL    HW2 6176   4.963   2.126   2.133 -2.0435  0.2957  1.5968
 1862SOL     OW 6177   2.768   3.182   3.156 -0.0894 -0.9566 -0.5475
 1862SOL    HW1 6178   2.697   3.119   3.142 -0.1662 -1.4194  1.5227
 1862SOL    HW2 6179   2.848   3.132   3.144 -0.1136 -0.7713 -1.5338
 1863SOL     OW 6180   6.210   3.233   0.319  0.5650  0.2417 -0.0115
 1863SOL    HW1 6181   6.288   3.181   0.336  0.7336  0.7103  0.6697
 1863SOL    HW2 6182   6.188   3.273   0.403 -0.0489  0.6067 -0.3340
 1864SOL     OW 6183   5.271   3.598   2.026 -0.6739 -0.2086  0.0332
 1864SOL    HW1 6184   5.351   3.551   2.051  0.7654  3.3640  3.1749
 1864SOL    HW2 6185   5.302   3.672   1.974 -2.0902  0.3818 -0.0135
 1865SOL     OW 6186   5.956   4.433   2.843 -0.0725  0.2850 -0.3574
 1865SOL    HW1 6187   6.021   4.390   2.787  1.5298  1.3633  0.6249
 1865SOL    HW2 6188   5.885   4.369   2.849  1.1263 -1.1707 -1.0059
 1866SOL     OW 6189   1.348   4.484   3.340  0.5232  0.4188  0.1428
 1866SOL    HW1 6190   1.287   4.467   3.412 -0.4786  0.7200 -0.6069
 1866SOL    HW2 6191   1.332   4.575   3.316  1.2056  0.4690 -0.1278
 1867SOL     OW 6192   3.131   4.065   0.083 -0.6742  0.3388  0.1225
 1867SOL    HW1 6193   3.148   4.022   0.167 -2.1083  1.6753  1.1510
 1867SOL    HW2 6194   3.040   4.046   0.064 -0.9720  1.8008 -0.0309
 1868SOL     OW 6195   2.246   0.699   2.615  0.8810 -0.0057  0.3684
 1868SOL    HW1 6196   2.217   0.697   2.706 -1.6362  1.1467 -0.3242
 1868SOL    HW2 6197   2.286   0.785   2.605 -0.1083  0.4364  0.0755
 1869SOL     OW 6198   6.275   3.314   3.365  0.1642  0.8496  0.4406
 1869SOL    HW1 6199   6.340   3.265   3.417 -0.3621  0.5956  0.8658
 1869SOL    HW2 6200   6.191   3.286   3.400 -0.3552 -1.1820 -2.1060
 1870SOL     OW 6201   4.475   2.045   0.294 -0.8828  0.7813  0.3567
 1870SOL    HW1 6202   4.545   2.001   0.342 -1.3892 -1.2144 -0.6300
 1870SOL    HW2 6203   4.400   2.040   0.352 -1.4036 -1.3286 -0.3934
 1871SOL     OW 6204   3.507   1.395   3.139 -0.5910 -0.0495 -0.5563
 1871SOL    HW1 6205   3.482   1.481   3.106 -2.4344 -0.1874  0.3507
 1871SOL    HW2 6206   3.540   1.412   3.227 -0.9338 -0.2745 -0.3853
 1872SOL     OW 6207   3.106   3.387   1.136  0.1266 -0.5287  0.3058
 1872SOL    HW1 6208   3.124   3.425   1.222 -1.9855  0.4415  0.3704
 1872SOL    HW2 6209   3.176   3.324   1.123  1.9126  1.0614  1.6420
 1873SOL     OW 6210   6.931   0.782   2.390 -0.9906  0.3836  0.0085
 1873SOL    HW1 6211   6.927   0.771   2.485 -0.1114 -2.1984 -0.1660
 1873SOL    HW2 6212   6.917   0.694   2.355 -0.9745  1.2162 -2.2517
 1874SOL     OW 6213   2.346   2.992   0.622  0.0216 -0.0975 -0.0125
 1874SOL    HW1 6214   2.352   3.074   0.672 -1.6130  0.3829 -0.5490
 1874SOL    HW2 6215   2.388   3.013   0.538  0.4143 -0.0981  0.1800
 1875SOL     OW 6216   4.970   1.403   2.732 -0.0917 -0.8788 -0.0485
 1875SOL    HW1 6217   4.930   1.408   2.819  1.4983  0.6857  0.6642
 1875SOL    HW2 6218   5.056   1.364   2.747  0.6241  0.3748 -0.7184
 1876SOL     OW 6219   3.364   4.439   1.448 -0.4905  0.6124  0.1377
 1876SOL    HW1 6220   3.418   4.514   1.422  0.4533 -0.3846 -0.8737
 1876SOL    HW2 6221   3.275   4.473   1.446 -0.0741  1.7462 -0.1963
 1877SOL     OW 6222   2.055   2.137   1.545 -0.0429  0.9046 -0.1414
 1877SOL    HW1 6223   2.005   2.063   1.580  0.7039 -0.0587 -1.0351
 1877SOL    HW2 6224   2.045   2.129   1.450 -0.6456  2.4687 -0.2474
 1878SOL     OW 6225   3.360   0.718   1.984  0.1376  0.1650 -0.5847
 1878SOL    HW1 6226   3.352   0.661   1.907  0.7517 -0.8954  0.1224
 1878SOL    HW2 6227   3.269   0.740   2.006 -0.2202 -1.6882 -0.0428
 1879SOL     OW 6228   3.841   2.054   0.403 -0.2788  0.4747  0.2001
 1879SOL    HW1 6229   3.918   2.102   0.433  0.2544  0.1821 -0.6809
 1879SOL    HW2 6230   3.811   2.103   0.326 -0.2390 -0.1089 -0.1924
 1880SOL     OW 6231   3.440   1.231   0.748  0.0996 -0.1423 -0.6574
 1880SOL    HW1 6232   3.419   1.189   0.664  2.3338 -0.2850 -1.2286
 1880SOL    HW2 6233   3.506   1.174   0.786 -0.5227  0.2010  0.9915
 1881SOL     OW 6234   5.433   1.739   1.553 -0.4295  0.1182  0.4685
 1881SOL    HW1 6235   5.478   1.752   1.470 -0.1283 -1.0001  0.4311
 1881SOL    HW2 6236   5.357   1.685   1.530 -0.5260  0.0811  0.8674
 1882SOL     OW 6237   0.822   1.247   1.903 -0.4444  0.5789  0.1008
 1882SOL    HW1 6238   0.872   1.228   1.983 -1.8069  0.5693  0.9827
 1882SOL    HW2 6239   0.746   1.296   1.934 -2.3883 -1.6548 -0.7966
 1883SOL     OW 6240   0.714   2.061   2.396  0.5650  0.3703 -0.2201
 1883SOL    HW1 6241   0.796   2.062   2.346  1.0004 -0.5853  0.4574
 1883SOL    HW2 6242   0.665   1.987   2.360 -0.2355  1.2226 -0.9526
 1884SOL     OW 6243   2.779   4.072   0.291  0.0246  0.3605  0.2694
 1884SOL    HW1 6244   2.795   4.074   0.196 -0.1832 -0.2202  0.2201
 1884SOL    HW2 6245   2.818   3.990   0.320  0.7598  0.8925  0.8189
 1885SOL     OW 6246   3.877   4.706   0.730  0.3941 -0.3591 -0.1403
 1885SOL    HW1 6247   3.884   4.727   0.823  2.1018 -0.1856 -0.2729
 1885SOL    HW2 6248   3.954   4.746   0.690 -0.1351 -0.6973 -1.5879
 1886SOL     OW 6249   2.650   0.111   3.033  0.2137 -0.4688  0.0290
 1886SOL    HW1 6250   2.669   0.106   2.940  1.1163 -0.9957  0.2216
 1886SOL    HW2 6251   2.664   0.022   3.065  0.1764 -0.2391  0.7048
 1887SOL     OW 6252   4.083   5.028   1.974  0.0442 -0.1874  0.2743
 1887SOL    HW1 6253   4.041   5.017   1.888  2.1111 -0.1816 -0.8002
 1887SOL    HW2 6254   4.131   4.947   1.988 -1.0422 -0.5888  1.9246
 1888SOL     OW 6255   1.956   2.671   0.039 -0.5064 -0.2519 -0.0986
 1888SOL    HW1 6256   1.930   2.580   0.056 -2.3028  0.2115 -0.1795
 1888SOL    HW2 6257   1.879   2.711   0.000 -0.0596  1.5563  0.7671
 1889SOL     OW 6258   3.790   0.901   2.628  0.7918  0.0469 -0.3263
 1889SOL    HW1 6259   3.829   0.821   2.663  1.3820  0.1757 -0.6656
 1889SOL    HW2 6260   3.744   0.873   2.549  0.3412 -0.0810 -0.0163
 1890SOL     OW 6261   6.166   3.558   0.349  0.2673  0.3284  0.1545
 1890SOL    HW1 6262   6.154   3.604   0.432 -0.4143 -0.3953  0.4714
 1890SOL    HW2 6263   6.258   3.533   0.348  0.5442  1.2950  0.1747
 1891SOL     OW 6264   3.340   2.697   0.619 -0.3414  0.0560  0.7097
 1891SOL    HW1 6265   3.409   2.730   0.678  0.3326 -1.0456  0.5608
 1891SOL    HW2 6266   3.260   2.739   0.651  0.5178  2.2419  0.2138
 1892SOL     OW 6267   5.621   0.429   2.749 -0.3761  0.1093  0.1451
 1892SOL    HW1 6268   5.581   0.462   2.669  1.1969  0.3594 -0.5884
 1892SOL    HW2 6269   5.715   0.448   2.738  0.1364 -1.5931  1.1755
 1893SOL     OW 6270   1.036   3.621   1.903 -0.0375 -0.0441 -0.1366
 1893SOL    HW1 6271   1.019   3.536   1.945 -1.0401 -0.2170 -0.8735
 1893SOL    HW2 6272   1.123   3.611   1.864  0.1839 -0.4534  0.4375
 1894SOL     OW 6273   0.879   5.107   0.493 -0.6453  0.0646  0.6029
 1894SOL    HW1 6274   0.951   5.098   0.556  0.0256  1.1545  0.0080
 1894SOL    HW2 6275   0.864   5.017   0.463  1.8456 -0.0077 -0.7503
 1895SOL     OW 6276   2.016   2.172   1.000  0.0272  0.2956  0.0074
 1895SOL    HW1 6277   2.085   2.222   0.957 -0.1350 -0.0288 -0.6514
 1895SOL    HW2 6278   1.951   2.158   0.931 -1.1163  1.3521  0.8370
 1896SOL     OW 6279   1.403   3.220   0.886  0.0649  0.1363  0.1279
 1896SOL    HW1 6280   1.378   3.271   0.810  1.2016 -0.8319 -0.9382
 1896SOL    HW2 6281   1.498   3.231   0.893  0.0903 -0.4393  0.9024
 1897SOL     OW 6282   3.112   2.520   1.587  0.5103 -0.2280  0.2123
 1897SOL    HW1 6283   3.028   2.512   1.633  1.5293 -1.2668  2.0260
 1897SOL    HW2 6284   3.145   2.606   1.613 -0.9325  1.1878 -2.3099
 1898SOL     OW 6285   5.085   5.313   2.561  0.0600 -0.2866 -0.0943
 1898SOL    HW1 6286   5.048   5.401   2.560  0.9722  0.1128  0.0395
 1898SOL    HW2 6287   5.108   5.298   2.652 -0.4892 -0.8405 -0.0438
 1899SOL     OW 6288   0.614   1.207   1.075  0.2635  0.1467  0.1285
 1899SOL    HW1 6289   0.668   1.210   1.153 -0.4661 -0.6822  0.6796
 1899SOL    HW2 6290   0.528   1.178   1.106 -0.2682  0.6238 -0.8511
 1900SOL     OW 6291   3.007   0.300   0.922 -0.1217  0.4302 -0.0144
 1900SOL    HW1 6292   2.924   0.286   0.966 -0.0995 -0.7483 -0.3219
 1900SOL    HW2 6293   3.066   0.234   0.959  0.4338  0.6733 -0.4418
 1901SOL     OW 6294   7.275   1.708   2.669 -0.1311  0.3516 -0.0686
 1901SOL    HW1 6295   7.204   1.662   2.712  0.2177 -0.5959 -0.4834
 1901SOL    HW2 6296   7.291   1.785   2.724 -0.6100 -0.1084  0.7268
 1902SOL     OW 6297   2.237   3.883   1.804 -0.2037  0.1904 -0.1865
 1902SOL    HW1 6298   2.230   3.805   1.858 -0.0444  0.5469  0.3609
 1902SOL    HW2 6299   2.199   3.953   1.858 -0.3556  0.4895 -0.6687
 1903SOL     OW 6300   4.837   3.876   1.583 -0.3977 -0.1839  0.5864
 1903SOL    HW1 6301   4.839   3.970   1.603  0.5834 -0.1073  0.1632
 1903SOL    HW2 6302   4.767   3.842   1.639  0.5052  0.4758  2.2067
 1904SOL     OW 6303   5.609   0.285   2.169  0.3592  0.0205 -0.3822
 1904SOL    HW1 6304   5.582   0.299   2.078  1.3377 -1.5553 -0.9660
 1904SOL    HW2 6305   5.700   0.316   2.171  0.6551 -0.8504 -0.2039
 1905SOL     OW 6306   1.610   3.159   0.042  0.1051 -0.0886  0.3982
 1905SOL    HW1 6307   1.580   3.194  -0.042  0.7733  1.1138  0.6364
 1905SOL    HW2 6308   1.530   3.146   0.092 -0.1498  1.6465  0.4915
 1906SOL     OW 6309   2.444   0.256   1.828 -0.4107 -0.1975  0.1149
 1906SOL    HW1 6310   2.354   0.225   1.816 -0.0867 -0.7060 -1.2878
 1906SOL    HW2 6311   2.435   0.334   1.883 -1.6628 -0.4648  0.3351
 1907SOL     OW 6312   5.384   1.710   0.469  0.1643 -0.4731 -0.4600
 1907SOL    HW1 6313   5.453   1.678   0.411  1.2294  0.2152  0.3903
 1907SOL    HW2 6314   5.396   1.661   0.550  0.1153  0.1801 -0.0535
 1908SOL     OW 6315   1.544   3.669   1.450  0.4819  0.5917 -0.2795
 1908SOL    HW1 6316   1.468   3.675   1.392  0.7834  0.2178 -0.7151
 1908SOL    HW2 6317   1.566   3.576   1.451 -0.1890  0.4147  1.3034
 1909SOL     OW 6318   6.022   0.475   2.243 -0.1666  0.2178 -0.1816
 1909SOL    HW1 6319   5.986   0.494   2.330 -1.4322 -0.1498 -0.6038
 1909SOL    HW2 6320   5.995   0.550   2.190 -1.0327 -0.4499 -0.7016
 1910SOL     OW 6321   0.070   3.190   2.233  0.6992 -0.5028  0.6074
 1910SOL    HW1 6322   0.130   3.117   2.215  0.2843 -1.1112  1.5920
 1910SOL    HW2 6323   0.128   3.266   2.239  1.3117 -0.9782  0.9398
 1911SOL     OW 6324   6.200   2.219   3.341 -0.4450  0.1125 -0.1002
 1911SOL    HW1 6325   6.288   2.202   3.307 -0.8437  1.0855 -1.7289
 1911SOL    HW2 6326   6.170   2.295   3.292 -2.0592  0.0331  0.7085
 1912SOL     OW 6327   5.154   5.167   1.896 -0.4509 -0.2198 -0.0907
 1912SOL    HW1 6328   5.107   5.108   1.956 -0.5320  0.9807  1.0750
 1912SOL    HW2 6329   5.204   5.108   1.839 -2.7686 -1.5106 -0.9183
 1913SOL     OW 6330   3.328   4.906   2.556  0.3052 -0.2024  0.0333
 1913SOL    HW1 6331   3.246   4.929   2.598 -0.2902  0.0827 -1.2192
 1913SOL    HW2 6332   3.304   4.886   2.465  1.1944 -3.0480  0.3283
 1914SOL     OW 6333   1.443   2.112   0.064  0.4858  0.0211 -0.2591
 1914SOL    HW1 6334   1.503   2.038   0.057  0.7925  0.1714  0.6193
 1914SOL    HW2 6335   1.486   2.172   0.126 -0.2891  0.3978 -0.0695
 1915SOL     OW 6336   7.056   4.519   3.309 -0.3730 -0.6247  0.4300
 1915SOL    HW1 6337   6.984   4.572   3.342 -0.9517 -0.7611 -0.5826
 1915SOL    HW2 6338   7.059   4.443   3.367 -0.3810 -0.1143  1.0976
 1916SOL     OW 6339   5.127   1.056   0.178 -0.8275  0.2865 -0.0525
 1916SOL    HW1 6340   5.138   1.102   0.261  1.1248 -0.9775  0.4593
 1916SOL    HW2 6341   5.176   1.107   0.114 -0.3126 -0.0077  0.1004
 1917SOL     OW 6342   0.493   2.524   1.520 -0.3892 -0.4745 -0.0455
 1917SOL    HW1 6343   0.543   2.520   1.439  0.1368 -1.8246  0.3184
 1917SOL    HW2 6344   0.536   2.462   1.578 -2.1372 -1.2479  0.4829
 1918SOL     OW 6345   1.022   3.779   0.927  0.0390 -0.1160 -0.3347
 1918SOL    HW1 6346   1.069   3.818   1.001 -0.2785 -0.7062  0.1878
 1918SOL    HW2 6347   1.032   3.685   0.938 -0.1335 -0.2134 -0.9675
 1919SOL     OW 6348   2.021   4.392   1.891  0.0573 -0.3061 -0.3327
 1919SOL    HW1 6349   2.008   4.377   1.984  1.6802 -0.3825 -0.0840
 1919SOL    HW2 6350   1.976   4.474   1.872  1.4837  0.8327  0.9977
 1920SOL     OW 6351   0.124   5.335   2.194  0.2541  0.2774 -0.0815
 1920SOL    HW1 6352   0.039   5.373   2.174  0.4723  0.1981 -1.2570
 1920SOL    HW2 6353   0.118   5.308   2.285 -0.2316  2.2449  0.5164
 1921SOL     OW 6354   3.765   0.250   0.465  0.3854  0.4317  0.1734
 1921SOL    HW1 6355   3.734   0.164   0.495 -3.5712  1.6979  0.3044
 1921SOL    HW2 6356   3.767   0.242   0.369 -0.7621  0.4017  0.1427
 1922SOL     OW 6357   2.520   4.965   0.929  0.7026 -0.4945  0.2456
 1922SOL    HW1 6358   2.578   5.033   0.893  0.0057  1.0364  1.8690
 1922SOL    HW2 6359   2.539   4.963   1.022 -0.3869 -1.4537  0.4725
 1923SOL     OW 6360   6.233   0.423   3.117 -0.1039  0.2619  0.1767
 1923SOL    HW1 6361   6.224   0.340   3.071  0.1066 -0.1809  0.9292
 1923SOL    HW2 6362   6.147   0.464   3.109 -0.2065 -0.0199 -0.1997
 1924SOL     OW 6363   1.511   2.112   2.839  0.3304 -0.4324  0.4864
 1924SOL    HW1 6364   1.456   2.102   2.762 -0.0836 -1.6169  0.9215
 1924SOL    HW2 6365   1.562   2.031   2.844  2.4931  0.7783 -0.1577
 1925SOL     OW 6366   7.174   3.278   2.689 -0.0665 -0.0516 -0.3203
 1925SOL    HW1 6367   7.251   3.221   2.684 -0.8984 -1.3060  0.5097
 1925SOL    HW2 6368   7.118   3.248   2.618 -0.6794 -0.5259  0.3629
 1926SOL     OW 6369   7.027   3.751   2.191 -0.1962 -0.5168 -0.5588
 1926SOL    HW1 6370   6.997   3.797   2.269 -1.5464 -1.5925 -0.4128
 1926SOL    HW2 6371   6.948   3.740   2.138  0.7875  0.6866 -2.3578
 1927SOL     OW 6372   1.649   0.675   1.634 -0.4527 -0.5638  0.5444
 1927SOL    HW1 6373   1.560   0.708   1.647 -0.1654  0.0416  1.0196
 1927SOL    HW2 6374   1.662   0.678   1.539 -0.1779  1.4123  0.6169
 1928SOL     OW 6375   4.290   1.921   2.258 -0.1516 -0.5147  0.3100
 1928SOL    HW1 6376   4.327   1.948   2.174 -1.9005 -0.8762 -0.6232
 1928SOL    HW2 6377   4.358   1.943   2.323  0.2523  2.0685 -0.8744
 1929SOL     OW 6378   1.360   2.611   2.204  0.2187  0.4568 -0.4916
 1929SOL    HW1 6379   1.403   2.619   2.288 -0.3513 -0.9897 -0.0256
 1929SOL    HW2 6380   1.330   2.700   2.183  0.0187  0.7673  1.0200
 1930SOL     OW 6381   5.388   0.221   3.186  0.1264 -0.3417  0.2668
 1930SOL    HW1 6382   5.357   0.135   3.214  0.8593 -0.0421  2.1052
 1930SOL    HW2 6383   5.326   0.247   3.118 -1.7217 -1.1620  1.5440
 1931SOL     OW 6384   3.879   3.723   3.389  0.0498 -0.3489  0.4469
 1931SOL    HW1 6385   3.946   3.719   3.457 -0.2531 -2.4220  0.6796
 1931SOL    HW2 6386   3.927   3.715   3.307  0.1330 -1.5240  0.6006
 1932SOL     OW 6387   6.529   1.412   0.092  0.3420  0.0895 -0.1049
 1932SOL    HW1 6388   6.477   1.479   0.048 -1.2322 -2.3909 -2.3642
 1932SOL    HW2 6389   6.525   1.436   0.185 -0.3382  2.8936 -0.7688
 1933SOL     OW 6390   1.042   4.764   1.557  0.0068 -0.0344  0.5626
 1933SOL    HW1 6391   1.076   4.736   1.642 -0.0386  1.5700  1.1453
 1933SOL    HW2 6392   1.018   4.856   1.570  0.4003  0.3746 -1.3058
 1934SOL     OW 6393   5.677   4.685   0.000 -0.3912  0.6575  0.1487
 1934SOL    HW1 6394   5.626   4.650  -0.073 -0.0285  0.3316  0.0465
 1934SOL    HW2 6395   5.645   4.774   0.012 -0.8197  0.5323 -0.0663
 1935SOL     OW 6396   4.815   4.864   2.208 -0.5269 -0.2638 -0.4729
 1935SOL    HW1 6397   4.843   4.802   2.275 -0.6429 -0.1321 -0.3020
 1935SOL    HW2 6398   4.748   4.917   2.251 -1.2620 -0.7676 -0.9712
 1936SOL     OW 6399   3.389   4.184   1.412 -0.1839  0.2465 -0.1780
 1936SOL    HW1 6400   3.306   4.146   1.438  0.7597 -1.9176 -0.1653
 1936SOL    HW2 6401   3.385   4.275   1.444 -2.2188 -0.0256  0.4349
 1937SOL     OW 6402   3.242   0.385   2.265  0.2576  0.4532  0.2053
 1937SOL    HW1 6403   3.282   0.403   2.179 -1.4336 -1.8892 -1.1880
 1937SOL    HW2 6404   3.203   0.468   2.291  3.0222  1.9269  0.0228
 1938SOL     OW 6405   5.871   3.881   1.851 -0.5029 -0.1004  0.0006
 1938SOL    HW1 6406   5.905   3.968   1.828  0.2011 -0.0490  1.1722
 1938SOL    HW2 6407   5.820   3.896   1.930 -0.7613 -0.6885 -0.0531
 1939SOL     OW 6408   1.547   4.268   1.836 -0.3363  0.6173  0.4945
 1939SOL    HW1 6409   1.574   4.343   1.888  0.5337  0.4940  0.2352
 1939SOL    HW2 6410   1.461   4.293   1.801 -0.3123  1.2497  0.8749
 1940SOL     OW 6411   6.748   1.382   2.743  0.1233  0.3364  0.1044
 1940SOL    HW1 6412   6.664   1.340   2.728  0.4597 -1.1646  1.9836
 1940SOL    HW2 6413   6.727   1.466   2.782 -0.5234  1.4306 -2.3883
 1941SOL     OW 6414   6.041   4.678   2.409  0.4904  0.8614 -0.1740
 1941SOL    HW1 6415   5.964   4.699   2.461  0.3435  0.7622 -0.3526
 1941SOL    HW2 6416   6.106   4.650   2.473 -0.0047 -0.2055 -0.1323
 1942SOL     OW 6417   4.100   0.868   1.000 -0.3074 -0.5793  0.2769
 1942SOL    HW1 6418   4.120   0.917   0.921 -0.2297 -1.5845 -0.3403
 1942SOL    HW2 6419   4.185   0.855   1.042 -0.3808  0.1957  0.6829
 1943SOL     OW 6420   0.810   0.475   0.348  0.0885 -0.2665  0.1102
 1943SOL    HW1 6421   0.876   0.523   0.299 -2.5756  2.3189 -1.2380
 1943SOL    HW2 6422   0.818   0.506   0.438  0.0426  0.8381 -0.2573
 1944SOL     OW 6423   0.993   2.297   3.008  0.5609  0.0867  0.5957
 1944SOL    HW1 6424   1.052   2.222   3.010 -1.8614 -1.9243  2.1101
 1944SOL    HW2 6425   0.967   2.310   3.099 -1.1635  1.0194  0.0150
 1945SOL     OW 6426   7.222   4.219   2.146  0.1635 -0.2455 -0.3996
 1945SOL    HW1 6427   7.231   4.232   2.241  0.7239  0.3301 -0.5305
 1945SOL    HW2 6428   7.252   4.301   2.107 -1.4821  0.0984 -1.0348
 1946SOL     OW 6429   0.813   1.280   2.832 -0.0684  0.2584 -0.3537
 1946SOL    HW1 6430   0.840   1.190   2.849 -1.5873 -0.6004 -2.0607
 1946SOL    HW2 6431   0.894   1.328   2.818  0.7273 -1.0540 -0.3642
 1947SOL     OW 6432   2.699   0.602   2.671  0.6700  0.4266 -0.6652
 1947SOL    HW1 6433   2.624   0.545   2.657 -1.8945  3.3467 -0.0449
 1947SOL    HW2 6434   2.720   0.637   2.584  0.9495  0.0540 -0.7504
 1948SOL     OW 6435   4.639   2.887   0.091 -0.5726  0.2493  1.0094
 1948SOL    HW1 6436   4.722   2.935   0.100 -0.7941  1.0828 -0.8516
 1948SOL    HW2 6437   4.653   2.830   0.016 -1.5614  0.1413  0.8919
 1949SOL     OW 6438   7.191   1.621   1.340 -0.0201 -0.2808 -0.0520
 1949SOL    HW1 6439   7.286   1.631   1.350  0.0382 -0.5441 -0.3430
 1949SOL    HW2 6440   7.176   1.625   1.246 -0.4377  0.9850  0.0477
 1950SOL     OW 6441   6.390   5.281   1.219 -0.4448 -0.6820 -0.1653
 1950SOL    HW1 6442   6.302   5.276   1.182 -0.4831  0.3569 -0.2489
 1950SOL    HW2 6443   6.390   5.217   1.290 -1.3547 -0.5088  0.0087
 1951SOL     OW 6444   4.337   0.805   1.123 -0.6005  0.0198  0.1947
 1951SOL    HW1 6445   4.329   0.796   1.218  1.9789 -1.7514  0.3505
 1951SOL    HW2 6446   4.309   0.720   1.088 -2.5283  0.9997 -0.7558
 1952SOL     OW 6447   2.783   2.158   0.146 -0.6425  0.5929 -0.2347
 1952SOL    HW1 6448   2.800   2.065   0.162  0.8522  1.0034  0.6808
 1952SOL    HW2 6449   2.688   2.162   0.130 -0.4887 -1.3173 -2.1112
 1953SOL     OW 6450   4.421   4.365   2.988  0.2372  0.1614  0.6474
 1953SOL    HW1 6451   4.506   4.407   2.972 -0.9936  2.4044 -0.2873
 1953SOL    HW2 6452   4.443   4.272   2.996  2.7977  0.6679  0.6108
 1954SOL     OW 6453   0.857   1.393   3.157 -0.0770  0.0972 -0.3290
 1954SOL    HW1 6454   0.910   1.360   3.085 -0.8220  1.8748 -1.7707
 1954SOL    HW2 6455   0.845   1.486   3.138 -1.4868  0.3239  1.3566
 1955SOL     OW 6456   4.583   2.249   0.149 -0.2936 -0.2686 -0.6787
 1955SOL    HW1 6457   4.560   2.181   0.212  0.6521 -2.3698 -2.4441
 1955SOL    HW2 6458   4.508   2.256   0.091  0.4330 -1.4750 -1.8135
 1956SOL     OW 6459   0.852   1.456   0.950 -0.3854  0.6632  0.0920
 1956SOL    HW1 6460   0.788   1.525   0.930  0.0470  1.2822  0.8199
 1956SOL    HW2 6461   0.816   1.378   0.907 -0.6531  1.4315 -1.1269
 1957SOL     OW 6462   3.420   2.392   0.538 -0.1733 -0.0774 -0.0030
 1957SOL    HW1 6463   3.386   2.477   0.563  0.0798  0.7844 -2.3376
 1957SOL    HW2 6464   3.360   2.361   0.471  0.7247 -0.9316 -0.4302
 1958SOL     OW 6465   4.847   3.420   1.572  0.0573  0.2679 -0.0063
 1958SOL    HW1 6466   4.777   3.424   1.507  0.2666 -0.4818 -0.2887
 1958SOL    HW2 6467   4.804   3.391   1.652  0.1950 -1.2800 -0.4491
 1959SOL     OW 6468   3.961   4.949   3.072  0.1510 -0.4644  0.0560
 1959SOL    HW1 6469   3.977   5.041   3.091 -0.1224 -0.5917  0.9468
 1959SOL    HW2 6470   3.887   4.925   3.128 -1.5166 -0.5585 -2.0590
 1960SOL     OW 6471   0.549   3.951   0.239  0.6559  0.3929 -0.0788
 1960SOL    HW1 6472   0.571   3.981   0.328  2.3641 -0.4687 -0.1695
 1960SOL    HW2 6473   0.598   4.010   0.182  0.0412  0.5582 -0.4455
 1961SOL     OW 6474   3.759   4.361   2.273 -0.0578  0.2009 -0.0822
 1961SOL    HW1 6475   3.760   4.449   2.236 -0.0279  0.6504  0.9672
 1961SOL    HW2 6476   3.807   4.369   2.355  0.3247 -0.8934 -0.1868
 1962SOL     OW 6477   4.659   0.813   3.170  0.0385 -0.0014 -0.2593
 1962SOL    HW1 6478   4.624   0.742   3.116 -0.3253  0.4376 -0.6121
 1962SOL    HW2 6479   4.643   0.892   3.119  0.0361  0.3844  0.3271
 1963SOL     OW 6480   4.055   0.157   0.860 -0.5022  0.4136 -0.4605
 1963SOL    HW1 6481   4.116   0.196   0.797 -1.7882  2.4908 -0.4909
 1963SOL    HW2 6482   3.985   0.120   0.807  0.0329 -0.8043 -0.3585
 1964SOL     OW 6483   3.274   5.013   0.094  0.0494  0.4800 -0.9022
 1964SOL    HW1 6484   3.289   4.928   0.052  1.7939  0.7774 -0.9614
 1964SOL    HW2 6485   3.239   5.069   0.024  0.4241  0.2459 -1.2815
 1965SOL     OW 6486   0.299   4.245   2.187 -0.1750 -0.0509  0.2467
 1965SOL    HW1 6487   0.259   4.173   2.235  2.2787 -2.0730 -0.5088
 1965SOL    HW2 6488   0.386   4.254   2.224 -0.0359  1.8606 -0.4149
 1966SOL     OW 6489   2.002   5.032   2.356 -0.2354  0.4479 -0.6261
 1966SOL    HW1 6490   2.075   5.091   2.374 -1.6734  2.5083 -1.1484
 1966SOL    HW2 6491   1.924   5.083   2.377 -1.5885 -1.2837 -1.1540
 1967SOL     OW 6492   3.777   4.161   0.669 -0.1356 -0.2071  0.2565
 1967SOL    HW1 6493   3.790   4.254   0.686 -1.0302  0.1601 -0.9349
 1967SOL    HW2 6494   3.831   4.117   0.734  0.7157  1.1486  0.5038
 1968SOL     OW 6495   2.449   2.556   3.263  0.0026  0.2818 -0.4009
 1968SOL    HW1 6496   2.385   2.627   3.264 -1.6186 -1.1042 -0.5959
 1968SOL    HW2 6497   2.458   2.534   3.170 -0.0032 -0.1872 -0.2911
 1969SOL     OW 6498   6.765   1.770   2.116  0.5267 -0.3838 -0.3880
 1969SOL    HW1 6499   6.802   1.716   2.047  1.4372  0.2615 -0.4121
 1969SOL    HW2 6500   6.695   1.716   2.154  1.7776 -1.8101 -0.0398
 1970SOL     OW 6501   3.059   2.008   0.573  0.5071  0.0433 -0.0568
 1970SOL    HW1 6502   3.096   1.982   0.657 -0.7323 -0.9851  0.1864
 1970SOL    HW2 6503   3.134   2.007   0.513  0.8666 -2.2927  0.3614
 1971SOL     OW 6504   0.602   0.026   0.886 -0.9065 -0.1970 -0.4794
 1971SOL    HW1 6505   0.620   0.052   0.795 -3.0654  1.4467 -0.5144
 1971SOL    HW2 6506   0.654   0.088   0.938  0.9195 -1.6063 -0.5144
 1972SOL     OW 6507   3.934   2.527   0.947  0.5241  0.0514 -0.6432
 1972SOL    HW1 6508   4.024   2.560   0.941  0.6292 -0.2159 -0.5496
 1972SOL    HW2 6509   3.935   2.469   1.024 -0.1640  1.4278  0.4544
 1973SOL     OW 6510   5.025   4.981   1.045 -0.1018  0.9757  0.1750
 1973SOL    HW1 6511   4.933   5.003   1.062 -0.7680 -0.0191 -1.8696
 1973SOL    HW2 6512   5.040   5.006   0.954  0.9186 -1.1001 -0.2884
 1974SOL     OW 6513   5.447   2.350   0.756  0.1280  0.1511 -0.2083
 1974SOL    HW1 6514   5.537   2.370   0.782  0.0341  0.0161  0.2402
 1974SOL    HW2 6515   5.455   2.284   0.688  0.3771  0.3625 -0.3858
 1975SOL     OW 6516   4.620   3.389   0.028 -0.1865  0.8974 -0.1045
 1975SOL    HW1 6517   4.693   3.341  -0.012 -1.0376  0.4616 -1.1929
 1975SOL    HW2 6518   4.542   3.346  -0.006 -1.0349 -0.3173  2.9912
 1976SOL     OW 6519   0.249   2.626   1.551 -0.7644 -0.2700  0.1522
 1976SOL    HW1 6520   0.216   2.671   1.473 -2.4986 -2.6806 -0.6276
 1976SOL    HW2 6521   0.340   2.607   1.531 -1.0735 -0.4862 -1.1550
 1977SOL     OW 6522   1.676   0.089   2.823  0.7524  0.0967 -0.0159
 1977SOL    HW1 6523   1.585   0.089   2.852 -0.0964  2.3286 -2.2341
 1977SOL    HW2 6524   1.684   0.010   2.769  0.2533 -0.3347  0.5353
 1978SOL     OW 6525   7.228   0.398   2.857  0.1182 -0.3429  0.5190
 1978SOL    HW1 6526   7.288   0.362   2.792  0.3568  1.2780 -0.2240
 1978SOL    HW2 6527   7.151   0.341   2.855  0.7208 -1.1483 -0.1257
 1979SOL     OW 6528   6.573   4.753   1.492 -0.9066  0.0450 -0.0107
 1979SOL    HW1 6529   6.651   4.698   1.486 -0.7673  0.2718 -0.2765
 1979SOL    HW2 6530   6.593   4.815   1.562 -0.9388 -0.0382  0.0732
 1980SOL     OW 6531   0.990   4.681   0.720  0.4221 -0.5847  0.3523
 1980SOL    HW1 6532   0.900   4.702   0.748  0.6199 -0.3329  0.8122
 1980SOL    HW2 6533   0.983   4.593   0.684  0.0206 -0.6480  0.5690
 1981SOL     OW 6534   1.547   0.152   2.442 -0.2856 -0.5381  0.3695
 1981SOL    HW1 6535   1.628   0.180   2.485  0.2305 -0.2107 -0.7722
 1981SOL    HW2 6536   1.480   0.211   2.478 -0.1038 -1.0623  1.6085
 1982SOL     OW 6537   1.959   2.615   0.392  0.1501  0.2146 -0.1998
 1982SOL    HW1 6538   1.999   2.576   0.470  2.4874  0.3191 -1.2590
 1982SOL    HW2 6539   1.938   2.540   0.336  0.3682  0.2345 -0.3099
 1983SOL     OW 6540   4.905   3.442   2.450  0.2642 -0.0418 -0.7217
 1983SOL    HW1 6541   4.875   3.354   2.472  0.3688  0.4421  1.6765
 1983SOL    HW2 6542   4.887   3.452   2.357  0.0680 -2.5116 -1.0061
 1984SOL     OW 6543   1.270   0.336   2.163 -1.0752 -0.4591  0.8011
 1984SOL    HW1 6544   1.352   0.385   2.156 -1.2204 -0.3557 -0.3838
 1984SOL    HW2 6545   1.204   0.403   2.180 -1.2179 -0.2596 -0.4423
 1985SOL     OW 6546   2.703   5.345   0.857 -0.0609  0.1201 -0.4747
 1985SOL    HW1 6547   2.686   5.265   0.808  1.0835  0.0205 -0.7369
 1985SOL    HW2 6548   2.689   5.416   0.794 -0.5034  0.1023 -0.4004
 1986SOL     OW 6549   1.595   1.643   1.174  0.4882 -0.3514 -0.6240
 1986SOL    HW1 6550   1.585   1.561   1.126 -0.7820 -0.5476 -0.0422
 1986SOL    HW2 6551   1.511   1.657   1.218  1.0846  0.6403  0.2633
 1987SOL     OW 6552   4.746   4.597   1.542  0.0300  0.1910  0.6929
 1987SOL    HW1 6553   4.784   4.626   1.625  1.7321  1.1041 -0.3640
 1987SOL    HW2 6554   4.661   4.641   1.539 -0.1400  0.0045  2.0173
 1988SOL     OW 6555   3.485   2.973   2.534  0.2847  0.4258 -0.9373
 1988SOL    HW1 6556   3.419   3.007   2.593  2.0741  1.3655  0.6075
 1988SOL    HW2 6557   3.436   2.948   2.455 -1.7296  2.1702 -0.3255
 1989SOL     OW 6558   6.749   4.572   2.882 -0.1281  0.0956 -0.0901
 1989SOL    HW1 6559   6.725   4.489   2.924 -0.8999 -0.0298 -0.7562
 1989SOL    HW2 6560   6.702   4.639   2.931  0.5220  0.1546  0.4697
 1990SOL     OW 6561   1.930   0.530   0.821 -0.3105 -0.4143  0.1068
 1990SOL    HW1 6562   1.940   0.555   0.730 -5.0404  1.6131 -0.1123
 1990SOL    HW2 6563   1.901   0.439   0.818 -1.2501 -0.1042 -0.5005
 1991SOL     OW 6564   5.597   2.558   2.757  0.2871  0.2784  0.0643
 1991SOL    HW1 6565   5.673   2.573   2.814  0.4990 -0.8569  0.1094
 1991SOL    HW2 6566   5.549   2.488   2.800  0.4707 -0.6291 -1.1628
 1992SOL     OW 6567   7.195   0.753   1.858 -0.4809  0.3938 -0.0338
 1992SOL    HW1 6568   7.117   0.699   1.846 -0.0101 -0.1038 -1.0260
 1992SOL    HW2 6569   7.174   0.811   1.931 -0.9335 -1.2815  1.2238
 1993SOL     OW 6570   5.392   3.498   1.217 -0.3990 -0.5470  0.1508
 1993SOL    HW1 6571   5.325   3.566   1.218  1.4896  1.4050  0.6198
 1993SOL    HW2 6572   5.403   3.474   1.309 -1.7133 -2.2508 -0.0859
 1994SOL     OW 6573   5.283   1.257   2.567  0.1708  0.6239 -0.0024
 1994SOL    HW1 6574   5.315   1.254   2.657  0.3960  1.5628 -0.0418
 1994SOL    HW2 6575   5.253   1.347   2.555 -0.8951  0.2200 -0.5223
 1995SOL     OW 6576   3.201   1.670   0.065  0.2517  0.3343 -0.2555
 1995SOL    HW1 6577   3.128   1.732   0.060 -1.2444 -1.4446 -1.3204
 1995SOL    HW2 6578   3.162   1.589   0.097  1.9800 -0.3804  0.1298
 1996SOL     OW 6579   4.849   5.295   1.357 -0.4985 -0.7089 -0.7046
 1996SOL    HW1 6580   4.881   5.256   1.439 -0.0729  0.7298 -0.1496
 1996SOL    HW2 6581   4.777   5.351   1.384 -0.4415 -0.3281 -1.3325
 1997SOL     OW 6582   4.798   0.777   1.789  0.1360 -0.0640  0.1967
 1997SOL    HW1 6583   4.766   0.731   1.711  1.8618 -0.3644 -0.3703
 1997SOL    HW2 6584   4.745   0.857   1.792 -1.0760 -0.8153 -0.3304
 1998SOL     OW 6585   1.983   3.713   2.661  0.3241 -0.0081  0.4886
 1998SOL    HW1 6586   1.900   3.738   2.621 -0.7171  1.0889  3.1534
 1998SOL    HW2 6587   2.007   3.632   2.615 -1.1955  0.6487 -1.6551
 1999SOL     OW 6588   0.259   4.245   1.616 -0.5319  0.3581  0.1017
 1999SOL    HW1 6589   0.205   4.197   1.678 -0.8648 -0.1245 -0.5503
 1999SOL    HW2 6590   0.276   4.329   1.658  0.3703 -0.4473  1.4282
 2000SOL     OW 6591   0.653   4.906   2.317  0.1348  0.2964  0.3671
 2000SOL    HW1 6592   0.581   4.913   2.379 -0.3753  0.5235 -0.2481
 2000SOL    HW2 6593   0.619   4.853   2.245  0.6361  0.2573  0.1489
 2001SOL     OW 6594   0.545   0.166   0.171  0.1310 -0.1015 -0.1419
 2001SOL    HW1 6595   0.543   0.206   0.084  1.1102  0.6922  0.1891
 2001SOL    HW2 6596   0.458   0.183   0.207  0.2978  1.1203 -0.2799
 2002SOL     OW 6597   6.475   4.689   2.775  0.2345 -0.0485 -0.5369
 2002SOL    HW1 6598   6.492   4.735   2.858  1.0269 -0.4979 -0.4325
 2002SOL    HW2 6599   6.449   4.758   2.714 -1.9710  0.1035  0.4840
 2003SOL     OW 6600   1.858   4.275   2.817  0.0802  0.3069 -0.1684
 2003SOL    HW1 6601   1.763   4.289   2.814  0.0383  0.1642  0.3848
 2003SOL    HW2 6602   1.895   4.362   2.824 -0.1240  0.2601  2.0202
 2004SOL     OW 6603   3.582   0.509   0.970  0.3810  0.5857 -0.3415
 2004SOL    HW1 6604   3.671   0.544   0.967  0.5380  0.1434 -0.9692
 2004SOL    HW2 6605   3.533   0.572   1.023  1.0207  0.9362 -0.1638
 2005SOL     OW 6606   4.021   4.007   3.151 -0.0539  0.6077 -0.5501
 2005SOL    HW1 6607   4.023   4.100   3.125  0.0735  0.8360  0.2549
 2005SOL    HW2 6608   3.962   3.966   3.087  0.1796  1.1653 -1.1434
 2006SOL     OW 6609   2.460   1.541   3.082 -0.1603 -0.3556 -0.6133
 2006SOL    HW1 6610   2.398   1.610   3.060  0.0370 -0.7170 -2.3976
 2006SOL    HW2 6611   2.485   1.503   2.998  1.7626 -0.8473  0.1366
 2007SOL     OW 6612   0.988   1.150   3.058  0.5583  0.2168 -0.2671
 2007SOL    HW1 6613   1.060   1.136   3.119  0.8380  0.0931 -0.6240
 2007SOL    HW2 6614   0.921   1.086   3.085  0.9249 -0.2615 -0.4694
 2008SOL     OW 6615   0.686   0.146   0.655  0.2696  0.2641  0.3782
 2008SOL    HW1 6616   0.648   0.197   0.583  0.2021 -0.2239  0.0647
 2008SOL    HW2 6617   0.718   0.066   0.613 -0.5795 -0.4304  1.0270
 2009SOL     OW 6618   4.551   3.430   2.405 -0.4207  0.1887  0.6852
 2009SOL    HW1 6619   4.516   3.405   2.491  1.7690 -1.2876  1.2231
 2009SOL    HW2 6620   4.582   3.348   2.367  1.1736  1.1888 -0.3119
 2010SOL     OW 6621   1.977   3.450   2.615 -0.3678 -0.0286  0.2276
 2010SOL    HW1 6622   2.021   3.383   2.562 -1.6239 -0.8872  0.2296
 2010SOL    HW2 6623   1.884   3.430   2.606 -0.6948  0.8993  1.3416
 2011SOL     OW 6624   6.784   1.950   3.155  0.1082 -0.0428 -0.3318
 2011SOL    HW1 6625   6.780   2.013   3.083 -1.8320  0.6564  0.3258
 2011SOL    HW2 6626   6.803   2.003   3.232 -2.2452 -0.0628  0.3435
 2012SOL     OW 6627   7.271   1.194   2.116 -0.2114 -0.4292 -0.0099
 2012SOL    HW1 6628   7.315   1.274   2.087  1.8074 -1.1898  0.8023
 2012SOL    HW2 6629   7.298   1.128   2.053  0.8325 -1.1716  1.1776
 2013SOL     OW 6630   0.664   2.470   2.279 -0.2356  0.2902 -0.4191
 2013SOL    HW1 6631   0.704   2.469   2.366 -1.5855  0.5684  0.2320
 2013SOL    HW2 6632   0.639   2.380   2.263 -1.0693  0.4357  0.0167
 2014SOL     OW 6633   7.083   1.884   1.934 -0.1698 -0.9581  0.0196
 2014SOL    HW1 6634   7.164   1.917   1.895 -0.2859 -1.0465 -0.3007
 2014SOL    HW2 6635   7.018   1.890   1.864 -0.4843 -0.7193  0.3277
 2015SOL     OW 6636   5.183   0.895   2.830 -0.3903 -0.0937  0.3927
 2015SOL    HW1 6637   5.100   0.859   2.800 -0.3072  0.3797 -0.4576
 2015SOL    HW2 6638   5.212   0.951   2.758  1.1942 -1.0910  0.1999
 2016SOL     OW 6639   0.062   1.206   3.411 -0.0552  0.4148 -0.4459
 2016SOL    HW1 6640   0.009   1.255   3.474  0.8774 -0.4182  1.0379
 2016SOL    HW2 6641   0.010   1.128   3.392  0.7091 -0.5740  1.2728
 2017SOL     OW 6642   3.718   4.751   0.522  0.0130  0.3791 -0.2174
 2017SOL    HW1 6643   3.801   4.781   0.484  0.4599 -2.3362 -1.5718
 2017SOL    HW2 6644   3.741   4.725   0.611 -0.0009  2.0489  0.3243
 2018SOL     OW 6645   0.229   3.880   1.078  0.2703  0.1282  0.8021
 2018SOL    HW1 6646   0.244   3.789   1.103 -1.4885 -0.1054  1.1476
 2018SOL    HW2 6647   0.148   3.904   1.122  1.8648  2.6290  2.6415
 2019SOL     OW 6648   1.930   2.889   1.347 -0.7163 -0.0662  0.1037
 2019SOL    HW1 6649   1.846   2.848   1.368 -0.4821 -0.1839  0.8475
 2019SOL    HW2 6650   1.933   2.966   1.404 -0.1510 -0.2752  0.3635
 2020SOL     OW 6651   0.389   2.571   1.102  0.0916 -0.0221  0.7060
 2020SOL    HW1 6652   0.357   2.484   1.122  0.0827 -0.9195 -2.6470
 2020SOL    HW2 6653   0.482   2.559   1.083 -0.6158 -0.1254 -3.3775
 2021SOL     OW 6654   2.339   3.126   2.696  0.4245 -0.5205 -0.3844
 2021SOL    HW1 6655   2.297   3.193   2.749  0.5398  0.1285 -1.0939
 2021SOL    HW2 6656   2.419   3.105   2.743 -0.8035 -2.0155  1.1628
 2022SOL     OW 6657   6.958   1.180   2.629 -0.2231 -0.0554 -0.2815
 2022SOL    HW1 6658   6.983   1.190   2.538  1.6852  0.1997  0.2293
 2022SOL    HW2 6659   6.864   1.162   2.627 -0.3998  0.9350 -2.2195
 2023SOL     OW 6660   7.084   4.969   2.536  0.1156  0.4934 -0.3252
 2023SOL    HW1 6661   7.085   4.989   2.442  1.8548 -2.1218 -0.9787
 2023SOL    HW2 6662   7.164   5.009   2.570  0.2463  0.2104 -0.2928
 2024SOL     OW 6663   2.398   2.557   0.207  0.3799  0.4883 -0.4639
 2024SOL    HW1 6664   2.409   2.626   0.272 -0.8955  0.8824 -0.6426
 2024SOL    HW2 6665   2.479   2.558   0.156  0.5135  1.6344 -0.2493
 2025SOL     OW 6666   2.058   5.249   1.108 -0.3942  0.5943 -0.3539
 2025SOL    HW1 6667   2.120   5.188   1.146  0.9260 -1.4521 -5.1374
 2025SOL    HW2 6668   2.111   5.308   1.055 -2.2403  1.4909 -1.2939
 2026SOL     OW 6669   7.092   2.402   0.233 -0.0286  0.1705  0.5313
 2026SOL    HW1 6670   7.156   2.446   0.289 -0.3955  0.0247  1.0671
 2026SOL    HW2 6671   7.052   2.336   0.289 -0.4726  0.0940  0.1286
 2027SOL     OW 6672   4.296   3.683   0.027  0.2915  0.2337 -0.3355
 2027SOL    HW1 6673   4.219   3.682   0.084  0.8300 -1.1059  0.4259
 2027SOL    HW2 6674   4.271   3.738  -0.047 -1.7834 -0.9730 -0.6064
 2028SOL     OW 6675   3.123   0.215   0.436 -0.5671  0.3545 -0.0791
 2028SOL    HW1 6676   3.044   0.191   0.388 -0.9036 -0.7124  0.9734
 2028SOL    HW2 6677   3.167   0.132   0.452 -0.9928  0.5282  2.3413
 2029SOL     OW 6678   7.003   4.666   2.538  0.4992 -0.3555  0.6151
 2029SOL    HW1 6679   6.960   4.683   2.622 -1.6983  0.3911 -0.5864
 2029SOL    HW2 6680   7.066   4.738   2.529 -1.9927  1.9075 -0.0624
 2030SOL     OW 6681   3.270   3.032   0.586  0.7636 -0.4928 -0.4953
 2030SOL    HW1 6682   3.219   2.957   0.616 -0.7032  0.3978 -0.6595
 2030SOL    HW2 6683   3.271   3.024   0.491 -0.3371  0.2476 -0.5888
 2031SOL     OW 6684   3.970   5.279   1.303 -0.2780 -0.1064  0.4712
 2031SOL    HW1 6685   4.008   5.346   1.246 -1.4717  0.5494  0.4194
 2031SOL    HW2 6686   4.039   5.213   1.311  1.3363  1.5672  1.3350
 2032SOL     OW 6687   0.448   1.255   1.550 -0.3299 -0.3169  0.0421
 2032SOL    HW1 6688   0.447   1.314   1.625 -0.2469  0.6807 -0.7180
 2032SOL    HW2 6689   0.387   1.185   1.573 -2.0011  1.1211  0.1354
 2033SOL     OW 6690   4.749   4.711   0.632 -0.4491  0.6219 -0.1541
 2033SOL    HW1 6691   4.677   4.651   0.612 -0.6303  0.0677  1.9284
 2033SOL    HW2 6692   4.723   4.754   0.713  1.6737  0.1770  0.8226
 2034SOL     OW 6693   0.429   2.355   1.968 -0.4438  0.2838  0.3802
 2034SOL    HW1 6694   0.399   2.409   2.041 -0.1552  1.8358 -0.5880
 2034SOL    HW2 6695   0.356   2.354   1.907 -0.1344  0.2968  0.0082
 2035SOL     OW 6696   3.307   5.001   0.486  0.1361  0.6350 -0.1683
 2035SOL    HW1 6697   3.261   4.997   0.402 -1.5101  0.7169  0.6987
 2035SOL    HW2 6698   3.246   5.043   0.545  1.5020  1.1269  0.9579
 2036SOL     OW 6699   0.810   4.240   2.805  0.3149  0.2223 -0.2806
 2036SOL    HW1 6700   0.844   4.218   2.892 -0.0303  0.8943  0.0280
 2036SOL    HW2 6701   0.729   4.188   2.797  0.8132 -0.5321 -0.5745
 2037SOL     OW 6702   6.422   1.204   3.281  0.2099 -0.4258  0.1501
 2037SOL    HW1 6703   6.491   1.221   3.217 -1.1795 -1.2017 -1.6242
 2037SOL    HW2 6704   6.464   1.149   3.347  1.5392 -0.0644 -0.3574
 2038SOL     OW 6705   2.908   0.292   0.681 -0.0862  0.1575  0.2617
 2038SOL    HW1 6706   2.925   0.264   0.770 -0.1207  0.2211  0.2884
 2038SOL    HW2 6707   2.962   0.371   0.670  1.1605 -0.7375 -0.2929
 2039SOL     OW 6708   3.529   4.906   3.304 -0.6745 -0.4438  0.3281
 2039SOL    HW1 6709   3.554   4.936   3.392 -3.6563  1.7873  0.6098
 2039SOL    HW2 6710   3.535   4.811   3.308  3.0935 -0.3077  1.5873
 2040SOL     OW 6711   0.964   2.168   1.961  0.3605 -0.0926 -0.1168
 2040SOL    HW1 6712   0.898   2.114   1.918  0.5403 -0.3154 -0.1149
 2040SOL    HW2 6713   0.918   2.249   1.982 -0.5773 -1.1179  2.0497
 2041SOL     OW 6714   3.711   3.069   3.087 -0.1865  0.0985 -0.6718
 2041SOL    HW1 6715   3.770   3.142   3.067 -0.6604  0.5236 -0.5230
 2041SOL    HW2 6716   3.665   3.051   3.005  0.4641 -0.5375 -0.9156
 2042SOL     OW 6717   4.221   2.368   0.969 -0.8843 -0.7013 -0.1397
 2042SOL    HW1 6718   4.240   2.354   0.876 -0.4678 -1.2372  0.0207
 2042SOL    HW2 6719   4.222   2.280   1.007  1.1127 -0.3224  0.7724
 2043SOL     OW 6720   0.913   1.048   2.602 -0.4821  0.2475 -0.0581
 2043SOL    HW1 6721   0.928   0.957   2.577  0.8449 -0.3560  2.5328
 2043SOL    HW2 6722   0.872   1.088   2.525  2.4749 -1.4976 -2.7764
 2044SOL     OW 6723   5.600   2.856   2.491  0.3061 -0.1775  0.3301
 2044SOL    HW1 6724   5.592   2.762   2.477  0.0339 -0.1556  0.3384
 2044SOL    HW2 6725   5.537   2.876   2.560  1.6000 -0.2769  1.5926
 2045SOL     OW 6726   6.561   0.973   0.310  0.5969 -0.1492 -0.2394
 2045SOL    HW1 6727   6.472   0.987   0.278  0.4333 -2.1126 -0.7253
 2045SOL    HW2 6728   6.551   0.918   0.387  1.2698  1.5857  1.1657
 2046SOL     OW 6729   7.020   2.568   3.215 -0.1968 -0.1841 -0.3633
 2046SOL    HW1 6730   7.026   2.594   3.123  2.6379 -0.4859 -0.3342
 2046SOL    HW2 6731   7.087   2.501   3.225 -0.0656  0.2373  2.0614
 2047SOL     OW 6732   3.400   0.802   1.639  0.1748 -0.1067 -0.1594
 2047SOL    HW1 6733   3.492   0.797   1.615  0.2623 -2.5907  0.3969
 2047SOL    HW2 6734   3.386   0.726   1.696 -2.3071 -0.0382 -0.5529
 2048SOL     OW 6735   3.769   1.742   0.026 -0.3105  0.8193  0.1665
 2048SOL    HW1 6736   3.771   1.831  -0.007  0.8021  0.9147  0.4324
 2048SOL    HW2 6737   3.720   1.693  -0.039 -2.1010  1.8557  0.6664
 2049SOL     OW 6738   4.531   2.724   2.699  0.6148  0.6324  0.1476
 2049SOL    HW1 6739   4.623   2.711   2.678  0.4034 -0.2235 -0.3005
 2049SOL    HW2 6740   4.488   2.644   2.670 -0.3514  1.2368 -0.1434
 2050SOL     OW 6741   3.783   2.122   3.051  0.0030 -0.3554  0.4021
 2050SOL    HW1 6742   3.720   2.123   3.123  1.7974 -0.5293  2.0604
 2050SOL    HW2 6743   3.840   2.197   3.067  1.9859 -1.8375  0.6588
 2051SOL     OW 6744   6.634   2.101   2.391 -0.4353 -0.3027 -0.2418
 2051SOL    HW1 6745   6.583   2.115   2.312  0.3848  1.8184 -0.4675
 2051SOL    HW2 6746   6.701   2.038   2.366 -1.0838 -0.7713 -0.8089
 2052SOL     OW 6747   0.971   3.225   1.689  0.2004  0.4665  0.1400
 2052SOL    HW1 6748   1.039   3.186   1.635  0.8268  1.6117  0.0616
 2052SOL    HW2 6749   0.928   3.151   1.732  1.3350 -0.2948 -0.0035
 2053SOL     OW 6750   3.031   1.471   1.040 -0.0099  0.1393 -0.5268
 2053SOL    HW1 6751   3.078   1.541   1.086  0.6183 -1.1020  0.7959
 2053SOL    HW2 6752   3.086   1.450   0.965  1.1110 -0.6447  0.4800
 2054SOL     OW 6753   6.879   1.652   1.247  0.4291  0.3058 -0.5186
 2054SOL    HW1 6754   6.972   1.632   1.249  0.0158 -1.8106  1.1760
 2054SOL    HW2 6755   6.865   1.709   1.323 -0.1800 -2.7600  1.9145
 2055SOL     OW 6756   4.411   0.992   2.374  0.3851  0.3430  0.1137
 2055SOL    HW1 6757   4.349   0.960   2.307 -0.1527  0.4231  0.5609
 2055SOL    HW2 6758   4.360   1.054   2.426  0.4268 -0.5727  1.3181
 2056SOL     OW 6759   0.817   3.834   0.766 -0.2188  0.2301  0.2747
 2056SOL    HW1 6760   0.830   3.755   0.713 -0.0932  0.5832 -0.2270
 2056SOL    HW2 6761   0.881   3.827   0.837 -1.7842 -1.2857  1.6151
 2057SOL     OW 6762   4.819   2.550   0.349 -0.1823  0.2902  0.1988
 2057SOL    HW1 6763   4.808   2.524   0.258 -1.1307 -0.1329  0.4143
 2057SOL    HW2 6764   4.831   2.468   0.396 -3.6744  0.0517  0.9500
 2058SOL     OW 6765   2.034   4.417   1.462  0.4712  0.0681 -0.2762
 2058SOL    HW1 6766   2.036   4.475   1.539  1.1816 -0.3604  0.0402
 2058SOL    HW2 6767   2.063   4.332   1.495 -2.2905 -0.9932 -0.3536
 2059SOL     OW 6768   5.813   1.578   3.091 -0.5569  0.4863 -0.8482
 2059SOL    HW1 6769   5.814   1.588   2.996  0.7567  1.8690 -0.7303
 2059SOL    HW2 6770   5.890   1.524   3.110  0.7314  2.3692 -0.4288
 2060SOL     OW 6771   1.019   4.994   1.952 -0.0835 -0.1434 -0.2528
 2060SOL    HW1 6772   0.973   5.000   2.036  0.2367 -1.3247  0.0244
 2060SOL    HW2 6773   1.038   5.085   1.929 -2.4412  0.3867 -0.3357
 2061SOL     OW 6774   0.722   0.163   1.293 -0.1893 -0.4382 -0.7338
 2061SOL    HW1 6775   0.723   0.146   1.388 -3.1442  0.3971 -0.4326
 2061SOL    HW2 6776   0.673   0.245   1.284  0.8703  0.0197 -2.9611
 2062SOL     OW 6777   2.920   3.942   2.946 -0.2860  0.4615 -0.4548
 2062SOL    HW1 6778   3.006   3.935   2.903  0.5371  1.8236  0.8909
 2062SOL    HW2 6779   2.879   4.018   2.905 -1.1113 -0.5120 -1.4838
 2063SOL     OW 6780   3.212   3.506   1.388  0.6617  0.8303  0.8440
 2063SOL    HW1 6781   3.306   3.495   1.404  0.9246  1.5428 -0.1165
 2063SOL    HW2 6782   3.204   3.592   1.347 -0.0630 -0.3239 -1.6417
 2064SOL     OW 6783   2.474   2.810   1.895 -0.4985 -0.1757 -0.1512
 2064SOL    HW1 6784   2.391   2.805   1.847 -0.9640  1.0097  0.4984
 2064SOL    HW2 6785   2.491   2.903   1.905  0.9954 -0.3994 -0.3730
 2065SOL     OW 6786   0.750   1.764   3.393 -0.5109  0.1062  0.4171
 2065SOL    HW1 6787   0.675   1.736   3.446 -1.6522  0.2668 -1.0559
 2065SOL    HW2 6788   0.823   1.768   3.455 -1.0846 -2.6721  1.4132
 2066SOL     OW 6789   4.901   4.141   3.014  0.1425  0.0769  0.6138
 2066SOL    HW1 6790   4.987   4.129   2.974  0.4664 -1.0082  1.5874
 2066SOL    HW2 6791   4.915   4.207   3.082  0.1418  0.1202  0.5722
 2067SOL     OW 6792   0.131   0.398   2.742  0.3548 -0.5912 -0.3137
 2067SOL    HW1 6793   0.161   0.454   2.813 -1.3293 -0.1695  0.1066
 2067SOL    HW2 6794   0.117   0.457   2.668 -1.1535 -0.4487  0.0476
 2068SOL     OW 6795   4.236   1.239   0.740 -0.0778 -0.2859 -0.1507
 2068SOL    HW1 6796   4.308   1.226   0.678 -1.2984  0.7280 -1.8701
 2068SOL    HW2 6797   4.261   1.315   0.792  0.1323 -0.0038 -0.6644
 2069SOL     OW 6798   2.156   0.687   1.356  0.2169  0.0576  0.0792
 2069SOL    HW1 6799   2.091   0.659   1.291  0.1884  0.1239  0.0780
 2069SOL    HW2 6800   2.105   0.738   1.419  0.3058  0.3015 -0.0429
 2070SOL     OW 6801   6.590   3.689   2.826 -0.4368  0.9723 -0.2269
 2070SOL    HW1 6802   6.612   3.740   2.904 -0.9432  0.9149 -0.0423
 2070SOL    HW2 6803   6.532   3.620   2.858  0.8727 -0.2286 -0.3369
 2071SOL     OW 6804   6.005   1.832   1.442 -0.1721  0.1736  0.7547
 2071SOL    HW1 6805   6.099   1.848   1.447  0.2510 -0.9865 -1.8877
 2071SOL    HW2 6806   5.993   1.745   1.480  0.1332 -0.4394 -0.4994
 2072SOL     OW 6807   5.184   0.063   0.174  0.1096 -0.4439  0.3418
 2072SOL    HW1 6808   5.210   0.016   0.253 -0.2077  0.4220  0.9764
 2072SOL    HW2 6809   5.248   0.134   0.167  0.0911 -0.4728 -0.1446
 2073SOL     OW 6810   4.217   4.739   1.666  0.6692  0.1603 -0.3683
 2073SOL    HW1 6811   4.137   4.792   1.661  0.2792 -0.5476 -2.6378
 2073SOL    HW2 6812   4.214   4.700   1.754 -2.2401 -0.9353 -0.8439
 2074SOL     OW 6813   3.895   5.114   2.223  0.2730 -0.3642 -0.2039
 2074SOL    HW1 6814   3.967   5.149   2.171 -0.1374  1.5946  0.4205
 2074SOL    HW2 6815   3.937   5.081   2.303  0.4385  2.3738  0.9561
 2075SOL     OW 6816   1.129   1.060   3.301  0.2044  0.1571 -0.0960
 2075SOL    HW1 6817   1.066   0.998   3.339 -1.3611  0.3284 -2.1965
 2075SOL    HW2 6818   1.135   1.130   3.366 -1.3831 -0.1299  0.4235
 2076SOL     OW 6819   1.726   5.079   2.420 -0.0090  0.1212  0.0665
 2076SOL    HW1 6820   1.674   5.069   2.500 -1.0827 -0.2079 -0.6612
 2076SOL    HW2 6821   1.722   4.993   2.378  0.0470  0.4617 -0.6464
 2077SOL     OW 6822   6.597   3.745   0.792  0.5474 -0.3304 -0.3330
 2077SOL    HW1 6823   6.520   3.768   0.845  1.6082  2.1717  0.2285
 2077SOL    HW2 6824   6.631   3.665   0.833 -1.8964 -1.7291 -0.8213
 2078SOL     OW 6825   4.629   4.608   0.317  0.1218  0.7443  0.3012
 2078SOL    HW1 6826   4.676   4.569   0.244  0.3057 -0.6689  1.1336
 2078SOL    HW2 6827   4.544   4.564   0.317 -0.0215  1.0119  0.7140
 2079SOL     OW 6828   2.575   3.865   1.406 -0.3916 -0.0560  1.0726
 2079SOL    HW1 6829   2.550   3.892   1.317  1.5440  0.0251  0.5112
 2079SOL    HW2 6830   2.492   3.841   1.447 -1.1724 -2.7816 -1.6634
 2080SOL     OW 6831   5.896   3.018   2.264 -0.3331  0.2259  0.2069
 2080SOL    HW1 6832   5.901   3.093   2.203  0.0374  1.6393  1.8890
 2080SOL    HW2 6833   5.904   2.941   2.208  0.9859  1.4827 -1.4399
 2081SOL     OW 6834   6.197   0.475   1.957  0.1665  0.6129  0.2920
 2081SOL    HW1 6835   6.127   0.519   1.908 -0.5789 -2.2785 -1.4516
 2081SOL    HW2 6836   6.265   0.458   1.892 -0.7593 -3.1523  0.0653
 2082SOL     OW 6837   5.652   1.248   2.316 -0.2198 -0.1704 -0.1660
 2082SOL    HW1 6838   5.657   1.154   2.298  0.6013 -0.0762 -0.4811
 2082SOL    HW2 6839   5.663   1.289   2.230  0.2300  0.2272  0.0815
 2083SOL     OW 6840   2.167   0.258   0.332  0.2997 -0.1239  0.3161
 2083SOL    HW1 6841   2.148   0.245   0.425 -1.4355  0.7610  0.1290
 2083SOL    HW2 6842   2.088   0.299   0.297  0.5433 -1.3212 -1.7709
 2084SOL     OW 6843   3.749   0.571   2.337  0.0702  0.1712 -0.4233
 2084SOL    HW1 6844   3.718   0.661   2.350  0.6385  0.0779  2.2032
 2084SOL    HW2 6845   3.743   0.532   2.424 -1.9522 -2.9730 -1.7910
 2085SOL     OW 6846   6.034   1.394   2.658 -0.1280 -0.1441  0.6087
 2085SOL    HW1 6847   5.978   1.398   2.580 -0.2441  0.5647  0.7160
 2085SOL    HW2 6848   6.046   1.301   2.674 -1.3851 -0.3184  0.6583
 2086SOL     OW 6849   7.090   0.620   2.168 -0.0079 -0.5406 -0.1670
 2086SOL    HW1 6850   7.173   0.572   2.160  0.0364 -0.4632 -0.1665
 2086SOL    HW2 6851   7.112   0.699   2.217  0.2640  0.3222 -1.6059
 2087SOL     OW 6852   5.307   2.556   3.068 -0.1762  0.4802 -0.3637
 2087SOL    HW1 6853   5.252   2.529   3.141 -0.1489  0.7124 -0.2584
 2087SOL    HW2 6854   5.247   2.567   2.995 -0.2021  0.2348 -0.3818
 2088SOL     OW 6855   0.394   0.664   0.948 -0.1149  0.3444  0.2499
 2088SOL    HW1 6856   0.404   0.600   0.877 -0.7425  1.0362 -0.4944
 2088SOL    HW2 6857   0.473   0.654   1.002 -0.5698 -1.5760  0.6010
 2089SOL     OW 6858   7.113   1.523   0.235 -0.2818 -0.1077  0.1197
 2089SOL    HW1 6859   7.119   1.572   0.317 -2.1278 -0.8771  0.7739
 2089SOL    HW2 6860   7.054   1.576   0.181  1.6366  0.8647 -1.1285
 2090SOL     OW 6861   5.158   4.027   3.193  0.2667  0.2348 -0.1294
 2090SOL    HW1 6862   5.137   3.944   3.236  1.6718 -0.7565 -1.2571
 2090SOL    HW2 6863   5.228   4.065   3.245 -0.5686  0.8908  0.5508
 2091SOL     OW 6864   0.892   3.384   0.905  0.2259  0.1717  0.5761
 2091SOL    HW1 6865   0.985   3.402   0.913  0.3480 -0.7395  1.3666
 2091SOL    HW2 6866   0.883   3.338   0.821  0.5854 -0.2864  0.7820
 2092SOL     OW 6867   4.564   1.106   1.346  0.2184 -0.1611 -0.4378
 2092SOL    HW1 6868   4.472   1.133   1.341  0.2736 -0.1416 -2.9371
 2092SOL    HW2 6869   4.613   1.187   1.336  0.5821 -0.0695  1.6495
 2093SOL     OW 6870   5.581   4.486   1.972 -0.1802 -0.0609  0.5451
 2093SOL    HW1 6871   5.634   4.505   1.894 -0.2245 -0.5735  0.3872
 2093SOL    HW2 6872   5.629   4.528   2.044 -0.2281  0.5630  0.2238
 2094SOL     OW 6873   4.757   1.901   2.202 -0.1835 -0.5804 -0.2961
 2094SOL    HW1 6874   4.764   1.824   2.146 -1.0321 -0.4381 -0.6211
 2094SOL    HW2 6875   4.821   1.962   2.166 -0.6182 -0.5416 -1.0386
 2095SOL     OW 6876   1.532   3.017   1.256 -0.1734  0.1905 -0.2199
 2095SOL    HW1 6877   1.559   2.988   1.169  0.0614 -0.1175 -0.0457
 2095SOL    HW2 6878   1.446   3.057   1.242 -0.4267 -0.4264 -0.4957
 2096SOL     OW 6879   0.805   3.208   0.352  1.1255  0.1484  0.0197
 2096SOL    HW1 6880   0.796   3.121   0.314  1.6763 -0.6023  1.5432
 2096SOL    HW2 6881   0.785   3.268   0.280  0.1611 -1.2298 -0.9008
 2097SOL     OW 6882   0.634   4.148   1.185  0.3780 -0.3595 -0.0057
 2097SOL    HW1 6883   0.617   4.058   1.214 -1.5144  0.6823  2.4254
 2097SOL    HW2 6884   0.687   4.186   1.254 -0.9680  1.0956  0.2669
 2098SOL     OW 6885   3.895   3.583   2.727 -0.5481 -0.1303 -0.4675
 2098SOL    HW1 6886   3.823   3.527   2.758 -1.5081  0.0224 -2.2933
 2098SOL    HW2 6887   3.959   3.522   2.691 -0.2926 -0.1940  0.0800
 2099SOL     OW 6888   0.837   2.845   1.923 -0.3665 -0.6960 -0.2968
 2099SOL    HW1 6889   0.883   2.822   2.004  1.4864  1.0653 -0.7407
 2099SOL    HW2 6890   0.904   2.836   1.855 -1.6246 -1.2250 -1.4971
 2100SOL     OW 6891   6.181   0.104   0.932  0.0112 -0.2028  0.1042
 2100SOL    HW1 6892   6.104   0.095   0.988 -1.1431 -2.6832 -1.6606
 2100SOL    HW2 6893   6.182   0.195   0.904 -0.2211  0.7138  2.8746
 2101SOL     OW 6894   0.305   4.519   1.507 -0.4332 -0.2275  0.3483
 2101SOL    HW1 6895   0.264   4.583   1.449  1.0031  1.9417  1.5753
 2101SOL    HW2 6896   0.365   4.470   1.451 -1.3954 -0.3825 -0.5698
 2102SOL     OW 6897   2.463   1.013   0.027  0.1772  0.1088  0.4692
 2102SOL    HW1 6898   2.455   1.013  -0.068 -0.5619  0.0700  0.5255
 2102SOL    HW2 6899   2.550   1.047   0.044  0.9706 -1.4339 -0.2676
 2103SOL     OW 6900   7.158   1.221   1.356 -0.0660  0.1472 -0.9145
 2103SOL    HW1 6901   7.223   1.288   1.335 -0.2211  0.7231  0.3628
 2103SOL    HW2 6902   7.209   1.144   1.379  0.2456  0.9727  1.3577
 2104SOL     OW 6903   6.133   1.573   0.609 -0.0925 -0.1608  0.0086
 2104SOL    HW1 6904   6.208   1.591   0.665  2.2957 -1.2749 -2.5654
 2104SOL    HW2 6905   6.102   1.487   0.637  1.1019 -0.7238 -0.3231
 2105SOL     OW 6906   1.340   4.932   2.404 -0.2240  0.5107 -0.3582
 2105SOL    HW1 6907   1.256   4.978   2.401 -0.2309  0.4779 -0.8286
 2105SOL    HW2 6908   1.348   4.902   2.494 -1.6950 -1.3165 -0.7840
 2106SOL     OW 6909   6.714   3.093   1.332 -0.3441  0.3879  0.1101
 2106SOL    HW1 6910   6.640   3.117   1.388 -0.8344  1.0162 -0.7865
 2106SOL    HW2 6911   6.716   3.161   1.264  1.5009  0.8137  0.5229
 2107SOL     OW 6912   4.737   4.611   2.729  0.3708  0.7038 -1.0153
 2107SOL    HW1 6913   4.787   4.683   2.690  0.2805  0.9935 -0.6087
 2107SOL    HW2 6914   4.723   4.639   2.820  0.1634  0.2611 -0.9097
 2108SOL     OW 6915   7.144   5.119   0.616  0.1994  0.0414 -0.1093
 2108SOL    HW1 6916   7.059   5.110   0.574  0.3057 -0.2444 -0.2668
 2108SOL    HW2 6917   7.156   5.213   0.626  0.3026  0.1318 -0.9892
 2109SOL     OW 6918   2.543   4.390   0.182 -0.5764  0.5324 -0.0792
 2109SOL    HW1 6919   2.576   4.436   0.105 -1.6755  2.4618  0.5362
 2109SOL    HW2 6920   2.516   4.304   0.149  1.2431  0.3717 -1.3247
 2110SOL     OW 6921   3.984   0.029   1.692  0.2134  0.2542 -0.2831
 2110SOL    HW1 6922   3.889   0.027   1.701  0.0111 -0.9537 -2.0732
 2110SOL    HW2 6923   4.017   0.004   1.778 -1.1525 -1.6259 -0.2524
 2111SOL     OW 6924   2.758   1.469   3.364 -0.2266  0.5150  0.0979
 2111SOL    HW1 6925   2.686   1.421   3.322 -1.3346  1.6408  0.6681
 2111SOL    HW2 6926   2.722   1.499   3.447  0.7205  1.6076  0.1322
 2112SOL     OW 6927   1.974   0.566   0.554 -0.1224 -0.3858 -0.4765
 2112SOL    HW1 6928   2.046   0.504   0.565 -1.2422 -1.9013 -1.2723
 2112SOL    HW2 6929   1.983   0.598   0.464 -0.8583 -1.1501 -0.8282
 2113SOL     OW 6930   1.493   1.977   1.045  0.4603  0.2061  0.0460
 2113SOL    HW1 6931   1.507   1.927   0.965  0.9619 -1.6072  1.2013
 2113SOL    HW2 6932   1.563   2.043   1.045  2.1586 -1.5177  0.2755
 2114SOL     OW 6933   1.394   1.226   3.121  0.4698  0.6938 -0.2015
 2114SOL    HW1 6934   1.347   1.306   3.146  0.3307  0.7525 -0.6365
 2114SOL    HW2 6935   1.484   1.254   3.106  1.1381  0.2464  2.5336
 2115SOL     OW 6936   1.317   0.280   0.588  0.0874  0.1209  0.1510
 2115SOL    HW1 6937   1.363   0.347   0.537 -0.4072  0.3840  0.0331
 2115SOL    HW2 6938   1.365   0.275   0.671  0.5584  0.0986 -0.1195
 2116SOL     OW 6939   2.216   2.342   0.264 -0.7740  0.3081  0.4419
 2116SOL    HW1 6940   2.285   2.402   0.234  0.9115 -1.1770  1.2295
 2116SOL    HW2 6941   2.186   2.380   0.346 -0.2322  0.4748  0.5690
 2117SOL     OW 6942   4.233   0.961   0.002  0.0195  0.9780 -0.6778
 2117SOL    HW1 6943   4.180   1.040  -0.003 -0.1325  0.8144 -2.0338
 2117SOL    HW2 6944   4.211   0.912  -0.077 -0.3143 -0.7022  0.4104
 2118SOL     OW 6945   0.479   4.884   0.178 -0.5560 -0.6131  0.4831
 2118SOL    HW1 6946   0.425   4.945   0.227  0.0324  1.4574 -1.2553
 2118SOL    HW2 6947   0.567   4.921   0.183 -0.2585 -1.0500 -0.9707
 2119SOL     OW 6948   2.496   1.090   2.866  0.2533  0.0836  0.6435
 2119SOL    HW1 6949   2.480   1.155   2.798 -0.9388 -0.3134  0.5160
 2119SOL    HW2 6950   2.575   1.045   2.838 -0.9227 -0.9609 -1.2289
 2120SOL     OW 6951   2.074   0.329   1.140 -1.2161  0.0736 -0.0659
 2120SOL    HW1 6952   2.125   0.270   1.194 -0.2662 -1.4057 -2.3993
 2120SOL    HW2 6953   2.135   0.360   1.073 -2.4545  1.2633 -0.7059
 2121SOL     OW 6954   4.364   1.416   1.565  0.3103  0.2024 -0.7828
 2121SOL    HW1 6955   4.403   1.486   1.514 -0.2688 -1.1324 -3.1957
 2121SOL    HW2 6956   4.278   1.450   1.591  1.5794  1.8732  1.7193
 2122SOL     OW 6957   2.687   1.345   2.080  0.0370  0.1472  0.1228
 2122SOL    HW1 6958   2.637   1.279   2.128  1.1309 -1.4120 -0.7605
 2122SOL    HW2 6959   2.679   1.319   1.988  1.8836  0.1842 -0.1020
 2123SOL     OW 6960   5.878   3.896   2.682  0.5997 -0.2435 -0.1393
 2123SOL    HW1 6961   5.942   3.873   2.615  2.9476  0.9399  1.5364
 2123SOL    HW2 6962   5.929   3.945   2.747 -1.7017 -0.6654  2.1193
 2124SOL     OW 6963   1.689   1.688   0.670 -0.2406 -0.4831  0.2590
 2124SOL    HW1 6964   1.610   1.635   0.684 -1.6917  0.9600 -1.8123
 2124SOL    HW2 6965   1.734   1.646   0.597 -0.6102  0.2354 -0.4023
 2125SOL     OW 6966   3.927   2.938   2.523 -0.1375 -0.7023  0.3520
 2125SOL    HW1 6967   4.001   2.920   2.581 -0.7867 -1.0664  1.0951
 2125SOL    HW2 6968   3.966   2.951   2.437  0.6369 -2.9586  0.2996
 2126SOL     OW 6969   0.675   2.645   1.279  0.0093  0.0975 -0.0108
 2126SOL    HW1 6970   0.635   2.711   1.336  1.2991 -0.2848  1.3848
 2126SOL    HW2 6971   0.742   2.692   1.229  0.6059 -0.0514  0.6411
 2127SOL     OW 6972   2.217   4.824   0.918  0.5371  0.5535  0.0347
 2127SOL    HW1 6973   2.267   4.837   0.837  1.2356  0.9114  0.5118
 2127SOL    HW2 6974   2.218   4.729   0.932  1.8574  0.6168  0.4988
 2128SOL     OW 6975   4.210   1.530   0.523 -0.1874 -0.1520  0.1134
 2128SOL    HW1 6976   4.211   1.623   0.498  0.8397 -0.1538  0.1020
 2128SOL    HW2 6977   4.126   1.497   0.490 -0.2204  0.5920 -0.5737
 2129SOL     OW 6978   3.846   1.895   1.081 -0.1693 -0.6336  0.0878
 2129SOL    HW1 6979   3.792   1.852   1.015 -2.1404  1.9519 -0.1243
 2129SOL    HW2 6980   3.921   1.928   1.033 -0.2741 -1.0264 -0.3551
 2130SOL     OW 6981   4.705   2.346   1.485  0.0597 -0.2571 -0.0110
 2130SOL    HW1 6982   4.733   2.427   1.528  1.0193 -1.8612  2.5869
 2130SOL    HW2 6983   4.615   2.365   1.456  0.0609  1.5635  1.0046
 2131SOL     OW 6984   4.469   4.703   1.296 -0.0866  1.3670 -0.6160
 2131SOL    HW1 6985   4.469   4.764   1.370 -2.1862  0.1065  0.5098
 2131SOL    HW2 6986   4.384   4.661   1.300  0.7517 -0.6290 -2.2202
 2132SOL     OW 6987   5.557   4.356   1.251 -0.6056  0.3686 -0.2293
 2132SOL    HW1 6988   5.491   4.403   1.201  0.0228  0.4498 -1.0169
 2132SOL    HW2 6989   5.637   4.408   1.240 -0.0750 -0.4628 -0.4849
 2133SOL     OW 6990   2.168   5.094   1.998  0.5529 -0.3402  0.0525
 2133SOL    HW1 6991   2.245   5.138   1.962  0.5656 -1.5262 -1.4738
 2133SOL    HW2 6992   2.197   5.006   2.019  0.1553 -0.1128  1.6552
 2134SOL     OW 6993   1.661   0.774   2.020 -0.1830  0.3015  0.3865
 2134SOL    HW1 6994   1.566   0.777   2.008 -0.2543  1.2102  1.0805
 2134SOL    HW2 6995   1.673   0.774   2.115  0.5001 -0.4269  0.3037
 2135SOL     OW 6996   0.062   1.939   3.095 -0.2563  0.1244  0.2288
 2135SOL    HW1 6997   0.029   1.863   3.143  1.4497 -0.4295  0.6301
 2135SOL    HW2 6998   0.024   1.932   3.008 -1.1403 -0.4715  0.6577
 2136SOL     OW 6999   0.379   3.664   2.635 -0.2771  0.7039  0.3799
 2136SOL    HW1 7000   0.301   3.707   2.669 -0.5665  0.6553 -0.2024
 2136SOL    HW2 7001   0.441   3.735   2.618 -0.1273  0.7263  1.0047
 2137SOL     OW 7002   4.487   2.454   2.660  0.6163 -0.0438 -0.1381
 2137SOL    HW1 7003   4.474   2.449   2.565  0.6275 -0.9411 -0.1000
 2137SOL    HW2 7004   4.531   2.371   2.683  2.0075  0.8156  0.4308
 2138SOL     OW 7005   4.467   3.383   2.659  0.1121  0.1601  0.1043
 2138SOL    HW1 7006   4.505   3.468   2.681  2.0960 -0.5427 -0.3957
 2138SOL    HW2 7007   4.411   3.362   2.733 -0.9001  2.1428 -0.0272
 2139SOL     OW 7008   6.941   4.441   0.766 -0.4211 -0.0337 -0.6505
 2139SOL    HW1 7009   6.878   4.469   0.832 -0.4600 -2.6651  0.5728
 2139SOL    HW2 7010   6.969   4.521   0.722 -0.5098  1.8378  2.4682
 2140SOL     OW 7011   0.836   4.084   0.709 -0.0376 -0.5023  0.2375
 2140SOL    HW1 7012   0.799   3.996   0.712 -0.2099 -0.4163  0.7286
 2140SOL    HW2 7013   0.798   4.129   0.785  1.0293 -0.3880  0.7156
 2141SOL     OW 7014   0.518   1.365   2.314  0.2331 -0.6156  0.4314
 2141SOL    HW1 7015   0.426   1.338   2.312 -0.2694  0.7774  2.4124
 2141SOL    HW2 7016   0.547   1.346   2.403  0.8939  1.9597  0.8339
 2142SOL     OW 7017   0.203   2.724   0.300  0.0887  0.0122 -0.5214
 2142SOL    HW1 7018   0.283   2.729   0.248 -0.6903  1.6581 -1.6403
 2142SOL    HW2 7019   0.225   2.766   0.383  1.2159 -2.2486  0.4018
 2143SOL     OW 7020   2.975   2.671   3.444 -0.6600  0.4662  0.0064
 2143SOL    HW1 7021   2.932   2.623   3.375  0.0530 -0.0355 -0.1029
 2143SOL    HW2 7022   2.974   2.762   3.414  0.9462  0.0815 -1.4052
 2144SOL     OW 7023   7.126   3.011   2.901 -0.0320 -0.0673 -0.5810
 2144SOL    HW1 7024   7.130   2.952   2.826  1.3673  1.7326 -2.0047
 2144SOL    HW2 7025   7.215   3.013   2.935 -0.3208  0.3254  0.1793
 2145SOL     OW 7026   1.321   4.451   0.957 -0.7216 -0.5501 -0.1000
 2145SOL    HW1 7027   1.293   4.542   0.948 -0.1682 -0.5661 -3.0701
 2145SOL    HW2 7028   1.271   4.404   0.890 -0.4636 -2.3473  0.8954
 2146SOL     OW 7029   0.438   1.804   0.225  0.4756 -0.1264  0.3864
 2146SOL    HW1 7030   0.386   1.724   0.224  0.8344 -0.3854  1.3598
 2146SOL    HW2 7031   0.492   1.799   0.146 -1.1156  0.2667 -0.7683
 2147SOL     OW 7032   5.948   2.917   2.710  0.3835  0.1278  0.6704
 2147SOL    HW1 7033   6.033   2.931   2.667 -0.8236 -0.0123 -1.9805
 2147SOL    HW2 7034   5.952   2.827   2.742  1.8850  0.7252  2.3178
 2148SOL     OW 7035   2.566   3.017   3.104  0.0055  0.1943  0.3996
 2148SOL    HW1 7036   2.473   3.021   3.082 -0.0173 -1.3800  0.1358
 2148SOL    HW2 7037   2.575   2.937   3.156  1.5070 -0.7022 -1.1641
 2149SOL     OW 7038   4.288   3.990   1.045 -0.0148  0.4864 -0.0672
 2149SOL    HW1 7039   4.325   3.995   1.133  0.3771 -0.0709 -0.1951
 2149SOL    HW2 7040   4.194   3.981   1.059  0.1788 -1.3013  0.3603
 2150SOL     OW 7041   2.053   0.747   0.047 -0.5219 -0.7830  0.8515
 2150SOL    HW1 7042   2.048   0.717   0.138 -3.2832  0.5488  1.2341
 2150SOL    HW2 7043   1.965   0.733   0.013  0.2792 -0.5966 -1.4432
 2151SOL     OW 7044   1.664   2.480   2.780 -0.0496 -0.0960 -0.3113
 2151SOL    HW1 7045   1.639   2.422   2.708  0.9570 -1.6479  0.5350
 2151SOL    HW2 7046   1.753   2.507   2.759  0.3054 -0.6788  0.4090
 2152SOL     OW 7047   5.608   2.626   1.267 -0.3490  0.3308 -0.0561
 2152SOL    HW1 7048   5.614   2.606   1.360 -3.2831 -0.6816  0.0048
 2152SOL    HW2 7049   5.619   2.721   1.262  3.3172  0.1107  0.8224
 2153SOL     OW 7050   3.992   1.288   2.501 -0.1475  0.2542 -0.2753
 2153SOL    HW1 7051   3.956   1.373   2.478 -1.3538 -0.4667 -1.1469
 2153SOL    HW2 7052   3.935   1.224   2.457 -0.0747 -1.0580  1.4161
 2154SOL     OW 7053   1.926   0.547   1.202 -0.1500 -0.5971 -0.4024
 2154SOL    HW1 7054   1.917   0.580   1.112  0.9525 -2.0386 -1.0910
 2154SOL    HW2 7055   1.955   0.457   1.191 -2.0596 -1.5091  1.4011
 2155SOL     OW 7056   4.044   0.353   0.486  0.2952 -0.2438  0.0121
 2155SOL    HW1 7057   3.974   0.409   0.520  1.6299  1.5468 -0.0225
 2155SOL    HW2 7058   4.119   0.412   0.477  2.0840 -2.2470  0.8550
 2156SOL     OW 7059   4.874   4.073   0.818 -0.7106  0.5649  0.1660
 2156SOL    HW1 7060   4.903   4.114   0.899  1.2116  0.4991 -0.4444
 2156SOL    HW2 7061   4.784   4.047   0.835 -1.3038  3.0827  1.3107
 2157SOL     OW 7062   3.687   0.056   3.344  0.1987  0.3700 -0.1531
 2157SOL    HW1 7063   3.698   0.030   3.435 -0.6142  1.3608  0.2496
 2157SOL    HW2 7064   3.630   0.133   3.348 -1.0307 -0.4142 -1.5920
 2158SOL     OW 7065   2.587   2.600   1.639 -0.1767  0.1959 -0.1321
 2158SOL    HW1 7066   2.526   2.645   1.580  1.4095  0.5165 -1.6306
 2158SOL    HW2 7067   2.647   2.669   1.667 -0.9164  0.0441  1.9349
 2159SOL     OW 7068   4.856   3.333   1.949 -0.6404 -0.3474  0.3209
 2159SOL    HW1 7069   4.866   3.251   1.901  0.9142  0.6988 -1.2494
 2159SOL    HW2 7070   4.803   3.388   1.891 -0.5578  0.2092  0.7656
 2160SOL     OW 7071   1.100   3.578   1.237 -0.4885 -0.5332 -0.0105
 2160SOL    HW1 7072   1.018   3.558   1.190 -0.4296 -1.8665  0.4223
 2160SOL    HW2 7073   1.130   3.494   1.270  1.9804 -0.3839 -1.5865
 2161SOL     OW 7074   3.729   2.747   2.324 -0.0373  0.6378  0.1974
 2161SOL    HW1 7075   3.817   2.721   2.297 -0.3382  0.6504 -0.8066
 2161SOL    HW2 7076   3.698   2.806   2.255 -0.5791  1.1772  0.8822
 2162SOL     OW 7077   0.773   0.590   2.146  0.2315  0.0536  0.2928
 2162SOL    HW1 7078   0.685   0.606   2.111 -0.2398 -0.8486  1.0214
 2162SOL    HW2 7079   0.788   0.664   2.205 -0.7472 -0.6054  1.4276
 2163SOL     OW 7080   1.945   4.361   0.909 -0.2589  0.6786  0.2057
 2163SOL    HW1 7081   1.997   4.308   0.968 -1.9651 -0.9303  0.3759
 2163SOL    HW2 7082   2.006   4.388   0.840  0.8821 -0.8307  0.5642
 2164SOL     OW 7083   4.274   4.942   1.468 -0.2208  0.3201 -0.5124
 2164SOL    HW1 7084   4.332   4.995   1.523 -0.0287 -0.4374  0.0430
 2164SOL    HW2 7085   4.265   4.859   1.516 -2.0939  0.5534 -0.3891
 2165SOL     OW 7086   0.898   4.326   1.260 -0.0692  0.2476 -0.5954
 2165SOL    HW1 7087   0.965   4.258   1.252  1.7710  1.9184 -0.1722
 2165SOL    HW2 7088   0.842   4.296   1.332  1.3536 -0.3010  0.3288
 2166SOL     OW 7089   1.257   0.959   3.058 -0.1408 -0.0545 -0.5068
 2166SOL    HW1 7090   1.292   1.041   3.094 -0.9857  0.3802 -0.6681
 2166SOL    HW2 7091   1.218   0.915   3.134  0.9711 -0.6741 -0.2702
 2167SOL     OW 7092   0.614   1.428   0.520 -0.1158 -0.4079  0.5621
 2167SOL    HW1 7093   0.565   1.488   0.576  1.3357 -0.9099  2.4838
 2167SOL    HW2 7094   0.646   1.361   0.580 -0.5196 -2.3655 -1.2852
 2168SOL     OW 7095   6.192   4.487   0.328 -0.3039 -0.1102  0.0041
 2168SOL    HW1 7096   6.251   4.467   0.255  2.3796 -2.0205  2.4540
 2168SOL    HW2 7097   6.222   4.572   0.361 -0.0504 -0.2663  0.1814
 2169SOL     OW 7098   1.985   3.440   1.409  0.4533  0.5362  0.3433
 2169SOL    HW1 7099   2.055   3.479   1.462  1.3074  0.0266 -0.3839
 2169SOL    HW2 7100   1.940   3.382   1.470  1.7218 -0.4077  0.4357
 2170SOL     OW 7101   1.024   4.082   1.583  0.1042 -0.5783 -0.0007
 2170SOL    HW1 7102   0.988   4.005   1.628 -0.0107 -0.6057 -0.1345
 2170SOL    HW2 7103   0.993   4.157   1.633 -1.1634 -0.5389 -0.7921
 2171SOL     OW 7104   4.294   4.128   0.810  0.2393 -0.7515  0.2733
 2171SOL    HW1 7105   4.319   4.070   0.738 -1.8303 -1.1512 -0.1787
 2171SOL    HW2 7106   4.307   4.075   0.888  0.3057 -1.1237  0.0117
 2172SOL     OW 7107   2.374   3.308   2.936 -0.0053  0.7345  0.6791
 2172SOL    HW1 7108   2.403   3.350   3.017  2.3439 -0.1588  0.3803
 2172SOL    HW2 7109   2.433   3.343   2.869  0.6554 -1.3852  0.0622
 2173SOL     OW 7110   0.038   2.416   3.282  0.0836 -0.1953  0.1166
 2173SOL    HW1 7111   0.101   2.350   3.251  0.0927 -0.5138  0.7812
 2173SOL    HW2 7112   0.067   2.436   3.371 -1.3546 -1.1455  0.8514
 2174SOL     OW 7113   0.881   0.753   1.054  0.5583  0.4296  0.9325
 2174SOL    HW1 7114   0.834   0.825   1.013  0.0363  0.0324  0.8166
 2174SOL    HW2 7115   0.814   0.686   1.068  1.1048 -0.1686  0.7146
 2175SOL     OW 7116   2.620   1.722   2.356 -0.3674  0.3852  0.6026
 2175SOL    HW1 7117   2.589   1.685   2.273 -3.6814 -0.0663  1.8747
 2175SOL    HW2 7118   2.661   1.648   2.401 -1.0186 -0.0726  0.4563
 2176SOL     OW 7119   1.374   0.773   0.297  0.2609  0.0508  0.2748
 2176SOL    HW1 7120   1.396   0.760   0.205  0.9602 -0.7577  0.5420
 2176SOL    HW2 7121   1.295   0.826   0.296 -0.8657 -1.5908 -0.8374
 2177SOL     OW 7122   7.136   2.720   0.442 -0.3035 -0.2665  0.6177
 2177SOL    HW1 7123   7.188   2.739   0.364 -0.5753 -0.9785  0.2474
 2177SOL    HW2 7124   7.195   2.669   0.498 -0.6213 -1.1590  0.1545
 2178SOL     OW 7125   3.142   3.258   0.666 -0.3655  0.1933  0.4078
 2178SOL    HW1 7126   3.113   3.301   0.585  0.1336  1.8110  1.0300
 2178SOL    HW2 7127   3.183   3.177   0.637  1.3955  1.5466 -1.1823
 2179SOL     OW 7128   0.385   0.903   2.054 -0.3811  0.2650  0.3695
 2179SOL    HW1 7129   0.344   0.892   1.968 -0.9826  0.4303  0.6329
 2179SOL    HW2 7130   0.347   0.833   2.107  1.0577 -0.7583  0.1281
 2180SOL     OW 7131   0.871   1.486   1.212  0.1718  0.4058 -0.3938
 2180SOL    HW1 7132   0.854   1.397   1.245 -1.6205  0.6007 -0.6781
 2180SOL    HW2 7133   0.873   1.476   1.116 -2.8264  0.9944 -0.6302
 2181SOL     OW 7134   7.220   0.134   3.455 -0.2053  0.1063  0.2362
 2181SOL    HW1 7135   7.201   0.108   3.546 -3.0145 -2.8638 -1.0159
 2181SOL    HW2 7136   7.277   0.065   3.422  0.2696  0.8270 -0.4822
 2182SOL     OW 7137   3.243   0.229   1.508 -0.6545  0.3628 -0.0335
 2182SOL    HW1 7138   3.206   0.167   1.570  1.3502 -0.0252  0.8372
 2182SOL    HW2 7139   3.315   0.271   1.555  1.4230 -0.4732 -2.2681
 2183SOL     OW 7140   3.478   2.325   0.800  0.2947  0.3164 -0.3572
 2183SOL    HW1 7141   3.494   2.382   0.724  0.4676 -1.9466 -2.1075
 2183SOL    HW2 7142   3.388   2.346   0.827 -1.1696 -1.2413 -3.5094
 2184SOL     OW 7143   1.217   3.180   1.548  0.2119  0.2160  0.3618
 2184SOL    HW1 7144   1.250   3.236   1.618 -0.2618  2.0843 -0.8346
 2184SOL    HW2 7145   1.282   3.109   1.542  1.1467  0.9240  1.5531
 2185SOL     OW 7146   2.716   5.062   3.461 -0.3569  0.3105  0.0988
 2185SOL    HW1 7147   2.645   5.062   3.525  0.0548 -0.9360  0.5861
 2185SOL    HW2 7148   2.709   4.977   3.417 -0.3395  0.9563 -1.1912
 2186SOL     OW 7149   3.999   4.159   3.414 -0.6190 -0.3991  0.0760
 2186SOL    HW1 7150   4.053   4.235   3.434 -1.5209  0.6934 -1.4167
 2186SOL    HW2 7151   4.017   4.139   3.322 -0.4039 -2.0165  0.4337
 2187SOL     OW 7152   5.282   4.458   2.758  0.3888  0.0027 -0.1755
 2187SOL    HW1 7153   5.350   4.392   2.751 -1.4932 -1.9862 -0.6912
 2187SOL    HW2 7154   5.296   4.515   2.682  2.1947  0.4222  0.4276
 2188SOL     OW 7155   7.243   2.819   2.182  0.1642 -0.1436  0.3253
 2188SOL    HW1 7156   7.282   2.786   2.101  0.5813  2.3887 -0.5730
 2188SOL    HW2 7157   7.315   2.864   2.228 -0.3540 -0.4985  1.5412
 2189SOL     OW 7158   3.786   2.295   0.181 -1.2580 -0.9826 -0.3138
 2189SOL    HW1 7159   3.699   2.310   0.143 -1.2106  1.5587  0.3899
 2189SOL    HW2 7160   3.775   2.315   0.274  0.1512 -0.2851 -0.2814
 2190SOL     OW 7161   6.825   3.629   0.601 -0.1871  0.2034 -0.4068
 2190SOL    HW1 7162   6.883   3.675   0.540  0.1423 -1.7131 -1.6059
 2190SOL    HW2 7163   6.739   3.635   0.560 -0.2774  0.3630 -0.1961
 2191SOL     OW 7164   2.410   0.535   0.221 -1.1095  0.4456 -0.7583
 2191SOL    HW1 7165   2.471   0.609   0.220 -1.8928  1.2530  1.9633
 2191SOL    HW2 7166   2.380   0.528   0.131  0.6470  2.0125 -1.5457
 2192SOL     OW 7167   1.338   0.328   2.536  0.4344  0.2210 -0.0100
 2192SOL    HW1 7168   1.269   0.384   2.500 -0.3412  0.0665  1.1821
 2192SOL    HW2 7169   1.334   0.342   2.631  0.9586 -1.0180  0.2236
 2193SOL     OW 7170   4.331   1.295   0.473  0.0886  0.2379 -0.1478
 2193SOL    HW1 7171   4.306   1.270   0.384 -1.3764  0.9713  0.0432
 2193SOL    HW2 7172   4.286   1.378   0.489  2.4203  1.5092  0.3398
 2194SOL     OW 7173   7.236   2.804   1.919  0.0455 -0.4240  0.0057
 2194SOL    HW1 7174   7.182   2.770   1.847  0.0936 -0.8713  0.1764
 2194SOL    HW2 7175   7.321   2.822   1.879  0.5051 -1.9758  0.2181
 2195SOL     OW 7176   0.928   0.879   0.414 -0.6404  0.4313  0.5981
 2195SOL    HW1 7177   0.990   0.946   0.387 -1.0301  1.5298  2.2618
 2195SOL    HW2 7178   0.885   0.852   0.333  0.8461  0.8136 -0.3576
 2196SOL     OW 7179   5.951   3.484   0.680  0.0134 -0.5034  0.2549
 2196SOL    HW1 7180   5.955   3.509   0.588 -1.2958  0.4290  0.4296
 2196SOL    HW2 7181   5.863   3.447   0.691  0.0069 -0.2395  1.2019
 2197SOL     OW 7182   6.709   3.245   3.434  0.1116  0.5749 -0.5976
 2197SOL    HW1 7183   6.707   3.220   3.342 -0.0990 -1.3289 -0.1128
 2197SOL    HW2 7184   6.781   3.195   3.472 -1.2417 -0.4857  0.7205
 2198SOL     OW 7185   4.604   4.189   2.453 -0.1705 -0.1993 -0.6355
 2198SOL    HW1 7186   4.597   4.190   2.357  1.9716 -0.2778 -0.8490
 2198SOL    HW2 7187   4.636   4.276   2.476 -0.7440 -0.1561  0.0255
 2199SOL     OW 7188   4.372   4.235   2.046 -0.3733 -0.1930 -0.1214
 2199SOL    HW1 7189   4.297   4.200   1.998 -0.6369  1.7400 -1.2128
 2199SOL    HW2 7190   4.344   4.322   2.074  1.2395  0.3298 -0.0209
 2200SOL     OW 7191   0.973   3.838   1.747 -0.6557 -0.1409  0.4829
 2200SOL    HW1 7192   1.040   3.786   1.793 -1.3786  0.7064  2.6410
 2200SOL    HW2 7193   0.895   3.830   1.802 -1.2612  1.8394 -0.0147
 2201SOL     OW 7194   6.727   3.530   2.657 -0.2602 -0.4121  0.0334
 2201SOL    HW1 7195   6.801   3.514   2.716 -1.9417 -1.5335  1.9553
 2201SOL    HW2 7196   6.686   3.610   2.692 -0.7159 -0.5471 -0.1933
 2202SOL     OW 7197   3.059   5.092   1.192  0.5418 -0.3871 -0.2501
 2202SOL    HW1 7198   3.089   5.154   1.258  0.8538 -0.3257 -0.4517
 2202SOL    HW2 7199   3.094   5.125   1.109 -0.3401 -0.1284 -0.5392
 2203SOL     OW 7200   1.326   3.062   3.260 -0.1583  0.2335 -0.7814
 2203SOL    HW1 7201   1.249   3.013   3.232 -1.6316  1.9174  0.1412
 2203SOL    HW2 7202   1.372   3.003   3.320 -2.2563  0.1735  0.8608
 2204SOL     OW 7203   1.022   2.872   2.916 -0.0545 -0.5808 -0.4910
 2204SOL    HW1 7204   0.989   2.935   2.852 -2.9474 -1.8540 -0.4190
 2204SOL    HW2 7205   1.058   2.801   2.863  0.2006 -0.3431 -0.6379
 2205SOL     OW 7206   5.061   1.198   2.304  0.2529 -0.4441 -0.6589
 2205SOL    HW1 7207   5.054   1.282   2.258  0.4642  0.3203  0.6320
 2205SOL    HW2 7208   4.994   1.203   2.372  0.2627 -1.3434 -0.5771
 2206SOL     OW 7209   1.676   3.659   1.036 -0.4842 -0.3348 -0.9741
 2206SOL    HW1 7210   1.732   3.581   1.032 -0.8721 -0.5988 -1.2977
 2206SOL    HW2 7211   1.589   3.627   1.015 -0.7049  0.1329 -0.7825
 2207SOL     OW 7212   5.966   1.467   0.216 -0.0384  0.0082  0.0183
 2207SOL    HW1 7213   5.954   1.386   0.167  0.3667  0.6371 -1.1556
 2207SOL    HW2 7214   6.059   1.467   0.240  0.2382  0.6552 -0.9900
 2208SOL     OW 7215   5.505   2.553   1.595  0.4190 -0.0924  0.1117
 2208SOL    HW1 7216   5.554   2.629   1.627 -0.3187  0.6020 -0.3620
 2208SOL    HW2 7217   5.414   2.583   1.592  0.0609 -1.1180  0.2551
 2209SOL     OW 7218   5.094   4.463   0.179  0.0885 -0.0215  0.1098
 2209SOL    HW1 7219   5.163   4.396   0.174  1.0505  0.9735 -0.4602
 2209SOL    HW2 7220   5.104   4.513   0.098  1.0040  2.3518  1.6015
 2210SOL     OW 7221   4.357   1.129   2.678  0.0760  0.3749 -0.3902
 2210SOL    HW1 7222   4.329   1.209   2.633 -0.0519 -1.1173 -3.2187
 2210SOL    HW2 7223   4.452   1.137   2.686 -0.0232  1.1335  0.0985
 2211SOL     OW 7224   6.370   0.709   0.735 -0.1479 -0.1474  0.1835
 2211SOL    HW1 7225   6.337   0.674   0.652 -0.4570  0.8680 -0.1338
 2211SOL    HW2 7226   6.334   0.650   0.802 -2.7261  0.9400 -0.1415
 2212SOL     OW 7227   4.149   4.522   1.137  0.5877 -0.1254  0.1456
 2212SOL    HW1 7228   4.139   4.494   1.046 -1.1640 -0.9769  0.5536
 2212SOL    HW2 7229   4.243   4.538   1.147  0.8921 -0.5596 -1.6406
 2213SOL     OW 7230   3.070   4.905   1.991 -0.2613  0.0073 -0.0263
 2213SOL    HW1 7231   3.043   4.817   2.016 -0.5255 -0.1231 -0.7567
 2213SOL    HW2 7232   3.165   4.899   1.980 -0.3939 -0.4498 -1.0680
 2214SOL     OW 7233   6.623   4.736   3.044  0.1318  0.2805 -0.6081
 2214SOL    HW1 7234   6.658   4.820   3.075 -0.1492 -0.3204  1.5081
 2214SOL    HW2 7235   6.558   4.712   3.110  2.4716 -3.1458  0.7194
 2215SOL     OW 7236   3.605   2.204   3.276  0.0618 -0.3134 -0.0870
 2215SOL    HW1 7237   3.533   2.265   3.262 -0.6711 -0.9131  1.0242
 2215SOL    HW2 7238   3.581   2.154   3.353  2.3136  0.4429  1.2132
 2216SOL     OW 7239   2.112   4.259   0.566 -0.3172  0.4822 -0.5474
 2216SOL    HW1 7240   2.025   4.232   0.593 -0.4296 -0.6028 -1.9066
 2216SOL    HW2 7241   2.105   4.353   0.552 -0.8924  0.6420  0.6502
 2217SOL     OW 7242   0.891   0.442   2.499 -0.0493 -0.0602 -0.0749
 2217SOL    HW1 7243   0.823   0.413   2.438  0.3144 -1.0935 -0.0039
 2217SOL    HW2 7244   0.843   0.471   2.576 -0.4790  0.6344 -0.5963
 2218SOL     OW 7245   5.679   1.881   2.377  0.6016 -0.6175  0.0686
 2218SOL    HW1 7246   5.668   1.965   2.421  0.8676 -0.9472  0.7842
 2218SOL    HW2 7247   5.645   1.895   2.289 -1.5410 -0.4039  0.8575
 2219SOL     OW 7248   6.121   3.196   1.110 -0.3190  0.3263  0.5871
 2219SOL    HW1 7249   6.214   3.196   1.090 -0.4088  0.9698  0.1176
 2219SOL    HW2 7250   6.086   3.268   1.058 -1.2834 -0.6686 -0.1835
 2220SOL     OW 7251   6.840   4.325   2.594  0.1145  0.1287  0.7238
 2220SOL    HW1 7252   6.890   4.395   2.551 -0.9798  0.2754 -0.3454
 2220SOL    HW2 7253   6.757   4.366   2.617 -0.4883 -0.7851  0.2131
 2221SOL     OW 7254   2.853   3.614   2.761 -0.3201 -0.5426 -0.0966
 2221SOL    HW1 7255   2.837   3.631   2.854 -0.6932 -1.8855  0.1076
 2221SOL    HW2 7256   2.767   3.589   2.726 -0.7118  2.2813 -1.3907
 2222SOL     OW 7257   3.828   4.592   1.917  0.8833 -0.0648 -0.0233
 2222SOL    HW1 7258   3.903   4.586   1.976  0.6158  0.4566  0.3752
 2222SOL    HW2 7259   3.751   4.587   1.975  0.6169  0.0392 -0.3636
 2223SOL     OW 7260   0.924   3.063   0.721  0.2692 -0.1021  1.2616
 2223SOL    HW1 7261   0.870   3.137   0.693  1.7423 -0.0212 -1.8974
 2223SOL    HW2 7262   0.923   3.003   0.646  4.2571 -0.1894  1.0154
 2224SOL     OW 7263   3.994   1.406   0.399 -0.2599  0.5533  0.6634
 2224SOL    HW1 7264   3.974   1.323   0.441  2.6246 -0.2231  0.7227
 2224SOL    HW2 7265   3.962   1.397   0.309 -0.5966 -0.3312  0.8660
 2225SOL     OW 7266   0.633   2.207   1.336  0.6912  0.4984  0.0779
 2225SOL    HW1 7267   0.710   2.235   1.384  0.0812  0.7294  0.9477
 2225SOL    HW2 7268   0.612   2.281   1.279  1.0346  0.4798 -0.0758
 2226SOL     OW 7269   4.314   3.423   0.513  0.2053  0.1201 -0.3155
 2226SOL    HW1 7270   4.350   3.454   0.596 -1.3050 -0.5414  0.6299
 2226SOL    HW2 7271   4.387   3.378   0.470  0.8056 -0.2428  1.0389
 2227SOL     OW 7272   0.996   0.174   2.869  0.3557 -0.1315 -0.4287
 2227SOL    HW1 7273   1.075   0.228   2.865  0.0239  0.3883 -0.1656
 2227SOL    HW2 7274   1.023   0.095   2.915  0.9173 -0.3098 -1.0725
 2228SOL     OW 7275   4.467   3.816   0.906  0.8559  0.4638 -0.0201
 2228SOL    HW1 7276   4.389   3.794   0.856  1.4716  0.6394 -1.0921
 2228SOL    HW2 7277   4.437   3.823   0.996 -0.2082 -0.2519 -0.3032
 2229SOL     OW 7278   0.580   4.088   2.801  0.4994  0.4195 -0.0216
 2229SOL    HW1 7279   0.626   4.006   2.819  2.7875  1.7752  0.7407
 2229SOL    HW2 7280   0.503   4.085   2.857 -0.4916 -1.9673 -1.3730
 2230SOL     OW 7281   5.163   5.181   2.786  0.3875 -0.4951  0.0850
 2230SOL    HW1 7282   5.128   5.100   2.824  1.7698 -1.6356 -0.9473
 2230SOL    HW2 7283   5.222   5.215   2.853 -1.0449  0.2888  0.9753
 2231SOL     OW 7284   6.577   4.830   0.568 -0.2853  0.3805 -0.4058
 2231SOL    HW1 7285   6.624   4.886   0.506 -1.8241 -0.9186 -2.9090
 2231SOL    HW2 7286   6.633   4.753   0.578  0.6924  1.2394  1.1372
 2232SOL     OW 7287   2.594   4.889   1.219 -0.2001 -0.1442  0.1511
 2232SOL    HW1 7288   2.609   4.891   1.314  0.7336 -0.3834  0.0181
 2232SOL    HW2 7289   2.680   4.906   1.180  0.0030 -2.5363 -0.6517
 2233SOL     OW 7290   3.986   4.126   0.852  0.2180  0.1855 -0.6604
 2233SOL    HW1 7291   4.070   4.127   0.807  1.0753 -0.4118  0.8485
 2233SOL    HW2 7292   3.978   4.213   0.891  1.2842 -0.4773  1.1442
 2234SOL     OW 7293   5.004   2.439   0.021 -0.1926 -0.5067 -0.2255
 2234SOL    HW1 7294   4.999   2.346   0.045 -1.0073 -0.9405 -1.9165
 2234SOL    HW2 7295   4.918   2.475   0.045  0.0181 -0.2626  0.1609
 2235SOL     OW 7296   6.771   4.193   0.241 -0.0679  0.1947  0.2570
 2235SOL    HW1 7297   6.681   4.197   0.211 -0.1291  3.5603  0.4684
 2235SOL    HW2 7298   6.768   4.226   0.331  1.1736 -1.4418  0.9452
 2236SOL     OW 7299   5.440   2.061   1.642  0.1383 -0.4772 -0.0703
 2236SOL    HW1 7300   5.458   2.154   1.657  1.4042 -0.6691 -0.2777
 2236SOL    HW2 7301   5.390   2.059   1.561 -1.9386  0.1689  1.1294
 2237SOL     OW 7302   4.092   4.167   1.996 -0.2623 -0.2062 -0.1899
 2237SOL    HW1 7303   4.002   4.135   2.000 -0.7761  1.0749 -1.0954
 2237SOL    HW2 7304   4.103   4.218   2.076  0.0598 -1.3247  0.4985
 2238SOL     OW 7305   7.103   4.791   2.019  0.2348  0.3852  0.0778
 2238SOL    HW1 7306   7.191   4.813   2.048  0.5908  0.7609 -1.2178
 2238SOL    HW2 7307   7.116   4.724   1.952 -0.4485  0.4986 -0.1786
 2239SOL     OW 7308   4.898   3.654   2.862  0.3207  0.5070  0.0439
 2239SOL    HW1 7309   4.988   3.625   2.874 -0.8815 -4.1089 -0.2659
 2239SOL    HW2 7310   4.885   3.655   2.767  0.3262  2.4014  0.0350
 2240SOL     OW 7311   5.372   3.427   1.478  0.2213  0.4378  0.2989
 2240SOL    HW1 7312   5.284   3.400   1.505  0.9386 -1.6203  0.7608
 2240SOL    HW2 7313   5.415   3.452   1.560  1.2384 -2.3379  0.7431
 2241SOL     OW 7314   4.756   4.943   1.817 -0.0972  0.3548 -0.1157
 2241SOL    HW1 7315   4.817   4.956   1.889  0.4939  0.1317 -0.5672
 2241SOL    HW2 7316   4.766   4.850   1.794  0.7834  0.7486 -1.4236
 2242SOL     OW 7317   2.523   2.916   3.377  0.2384 -0.2992  0.2226
 2242SOL    HW1 7318   2.480   2.885   3.456  0.7731  0.5757  0.8792
 2242SOL    HW2 7319   2.575   2.991   3.406 -0.3557  0.6828 -1.1438
 2243SOL     OW 7320   0.354   2.708   2.833  0.3228 -0.2854 -0.1851
 2243SOL    HW1 7321   0.269   2.664   2.844 -0.1280  0.8744  1.3329
 2243SOL    HW2 7322   0.363   2.763   2.911  1.6755  0.9642 -1.1615
 2244SOL     OW 7323   2.945   1.006   2.120 -0.2152 -0.0051 -0.1667
 2244SOL    HW1 7324   2.853   0.980   2.114 -0.2331 -0.2805  1.0040
 2244SOL    HW2 7325   2.944   1.101   2.110 -0.7721  0.1292  0.9657
 2245SOL     OW 7326   7.187   5.283   0.228  0.0082 -0.1710 -0.4667
 2245SOL    HW1 7327   7.139   5.320   0.303 -0.5378 -0.8541 -0.4656
 2245SOL    HW2 7328   7.274   5.264   0.263  0.3853  1.3276 -0.5382
 2246SOL     OW 7329   3.150   2.150   3.055  0.2991 -0.0878 -0.0385
 2246SOL    HW1 7330   3.189   2.069   3.023  1.6973  0.0669  1.1705
 2246SOL    HW2 7331   3.175   2.216   2.991  2.2368  0.0381  0.7786
 2247SOL     OW 7332   7.090   1.827   3.022  0.1472  0.0438 -0.0956
 2247SOL    HW1 7333   7.098   1.915   3.058  0.1508  0.5852 -1.3691
 2247SOL    HW2 7334   7.134   1.771   3.087 -1.0545  0.7655  1.4152
 2248SOL     OW 7335   2.896   4.594   2.817 -0.2304 -0.2786  0.1332
 2248SOL    HW1 7336   2.818   4.545   2.847  0.1782 -0.7653  0.4201
 2248SOL    HW2 7337   2.967   4.531   2.824 -0.0324 -0.2556 -1.4166
 2249SOL     OW 7338   4.243   0.153   1.589 -1.1297 -0.7063 -0.3190
 2249SOL    HW1 7339   4.296   0.114   1.519 -0.9917 -0.9203 -0.0959
 2249SOL    HW2 7340   4.161   0.103   1.586 -0.7272 -1.4226  0.3602
 2250SOL     OW 7341   3.030   0.437   3.003 -0.7699  0.2355 -0.0590
 2250SOL    HW1 7342   3.073   0.391   2.931 -1.1764 -1.4271  0.7167
 2250SOL    HW2 7343   2.973   0.501   2.959  0.1651  0.3378 -1.1587
 2251SOL     OW 7344   5.676   1.614   2.279 -0.1928 -0.2600  0.7835
 2251SOL    HW1 7345   5.583   1.590   2.278  0.0048 -1.5288 -3.0036
 2251SOL    HW2 7346   5.677   1.702   2.318 -3.4453  1.0724 -1.6054
 2252SOL     OW 7347   2.176   4.792   2.381 -0.0025  0.3679 -0.3803
 2252SOL    HW1 7348   2.107   4.853   2.355  0.5186  1.4210  0.6473
 2252SOL    HW2 7349   2.258   4.836   2.358  0.3851  0.0507  0.3507
 2253SOL     OW 7350   3.712   4.626   2.254  0.2085 -0.0240 -0.1940
 2253SOL    HW1 7351   3.715   4.702   2.197  0.9152 -0.1596 -0.3474
 2253SOL    HW2 7352   3.745   4.658   2.339 -0.6642  0.1333  0.0929
 2254SOL     OW 7353   6.220   4.289   0.500 -0.0665  0.4239 -0.2068
 2254SOL    HW1 7354   6.244   4.364   0.444  1.2069  1.2688  1.3582
 2254SOL    HW2 7355   6.127   4.301   0.517 -0.2586  0.6885 -1.3417
 2255SOL     OW 7356   6.013   3.748   0.914  0.0330  0.1218  0.0671
 2255SOL    HW1 7357   5.949   3.710   0.974  1.9104 -0.2518  1.9771
 2255SOL    HW2 7358   6.070   3.675   0.890  1.2567  0.8988  0.5068
 2256SOL     OW 7359   4.022   3.853   2.100 -0.5296 -0.0027  0.3527
 2256SOL    HW1 7360   4.109   3.893   2.111 -0.3860 -0.8121  2.8347
 2256SOL    HW2 7361   4.035   3.761   2.126 -1.5313 -0.9260 -2.1399
 2257SOL     OW 7362   4.418   3.293   3.127 -0.0710 -0.5173  0.3827
 2257SOL    HW1 7363   4.351   3.238   3.086  0.5065 -0.9995  0.0698
 2257SOL    HW2 7364   4.498   3.241   3.122  0.5636  0.4919 -0.2213
 2258SOL     OW 7365   3.675   2.835   3.225  0.1528  0.1661 -0.3703
 2258SOL    HW1 7366   3.694   2.919   3.183  1.3377  0.6220  0.9930
 2258SOL    HW2 7367   3.603   2.798   3.173  0.5703  1.3464 -1.8739
 2259SOL     OW 7368   3.445   0.297   1.670 -0.1584  0.9684 -0.7914
 2259SOL    HW1 7369   3.473   0.242   1.743 -0.1314  2.0555  0.0240
 2259SOL    HW2 7370   3.493   0.261   1.595  0.2978  0.2433 -0.1714
 2260SOL     OW 7371   4.646   0.070   1.539  0.2285 -0.7473  0.1604
 2260SOL    HW1 7372   4.567   0.100   1.584  0.7705  0.1691  0.5432
 2260SOL    HW2 7373   4.712   0.064   1.608  0.9102  0.0724 -0.3990
 2261SOL     OW 7374   5.605   2.944   0.395  0.1890 -0.0562 -0.2761
 2261SOL    HW1 7375   5.580   2.950   0.303 -1.2990  0.4209  0.1282
 2261SOL    HW2 7376   5.618   2.850   0.411 -3.2073 -0.5989 -0.1139
 2262SOL     OW 7377   3.248   1.311   2.386 -0.0414 -0.3552  0.4014
 2262SOL    HW1 7378   3.218   1.224   2.415 -0.6435 -1.0391 -1.9915
 2262SOL    HW2 7379   3.224   1.314   2.294  2.4005  1.3147 -0.2767
 2263SOL     OW 7380   1.308   4.139   2.114  0.2585  0.4479  0.5373
 2263SOL    HW1 7381   1.388   4.088   2.105 -0.3668 -0.2287 -2.2101
 2263SOL    HW2 7382   1.322   4.193   2.191  3.2455  0.1641  0.2929
 2264SOL     OW 7383   5.078   0.172   0.876  0.1880  0.4164  0.2964
 2264SOL    HW1 7384   5.024   0.093   0.879 -0.9680  1.1729  0.2753
 2264SOL    HW2 7385   5.106   0.178   0.784 -0.3025  0.4030  0.1424
 2265SOL     OW 7386   0.649   0.249   0.419  1.0335 -0.0563  0.3319
 2265SOL    HW1 7387   0.687   0.331   0.386  0.6585  0.2340  0.6119
 2265SOL    HW2 7388   0.618   0.204   0.341  0.4098  0.4934  0.2519
 2266SOL     OW 7389   3.168   1.554   2.500 -0.1280 -0.0248 -0.4862
 2266SOL    HW1 7390   3.177   1.467   2.460  0.4399  0.2408 -0.9423
 2266SOL    HW2 7391   3.203   1.544   2.588 -1.7623 -0.7196  0.1271
 2267SOL     OW 7392   1.003   2.943   2.262 -0.4606 -0.1119 -0.5611
 2267SOL    HW1 7393   0.986   2.972   2.351  1.7594 -0.6024  0.0909
 2267SOL    HW2 7394   0.964   3.010   2.206  1.1631  2.1521  0.8483
 2268SOL     OW 7395   5.296   3.539   0.661  0.2156  0.3417 -0.3890
 2268SOL    HW1 7396   5.233   3.612   0.660  0.3999  0.5115  0.1354
 2268SOL    HW2 7397   5.325   3.534   0.752 -0.1474 -0.6972 -0.3250
 2269SOL     OW 7398   3.332   2.604   0.968  0.6575 -0.0331 -0.2568
 2269SOL    HW1 7399   3.292   2.690   0.976 -1.5549 -1.1343  1.7284
 2269SOL    HW2 7400   3.426   2.620   0.983 -0.0153  1.7282  3.2242
 2270SOL     OW 7401   2.278   4.273   0.092 -0.1752 -0.0549  0.2443
 2270SOL    HW1 7402   2.312   4.271   0.002 -1.6617 -1.3913 -0.3377
 2270SOL    HW2 7403   2.299   4.187   0.127 -2.4431 -0.7581  0.0212
 2271SOL     OW 7404   3.028   2.273   1.544  0.4355 -0.1300 -0.3207
 2271SOL    HW1 7405   2.956   2.316   1.497  0.0452 -0.5515 -0.1218
 2271SOL    HW2 7406   3.083   2.345   1.576 -0.7986  0.2937  0.9663
 2272SOL     OW 7407   3.076   2.885   1.405  0.0226 -0.5922  0.4513
 2272SOL    HW1 7408   3.111   2.835   1.479  0.8743 -0.3436  0.2293
 2272SOL    HW2 7409   3.065   2.974   1.439 -0.6859 -0.7347  0.6043
 2273SOL     OW 7410   2.718   2.460   0.897  0.3333  0.1207 -0.0288
 2273SOL    HW1 7411   2.746   2.522   0.829  0.0248 -1.9658 -2.2210
 2273SOL    HW2 7412   2.788   2.462   0.962  0.1334  3.0065  0.2598
 2274SOL     OW 7413   7.028   2.633   1.824  0.0769  0.3171 -0.3879
 2274SOL    HW1 7414   7.061   2.544   1.836 -0.5851  0.0153 -0.7650
 2274SOL    HW2 7415   6.991   2.656   1.909 -1.6063 -0.5620 -0.8410
 2275SOL     OW 7416   3.281   3.651   1.726  0.0938 -0.6577 -0.1059
 2275SOL    HW1 7417   3.241   3.733   1.698  1.7891  0.0391 -0.6420
 2275SOL    HW2 7418   3.334   3.674   1.802  1.4388 -0.9922 -0.9015
 2276SOL     OW 7419   5.938   3.141   3.096 -0.1980  0.4626  0.2965
 2276SOL    HW1 7420   5.887   3.093   3.031 -1.5367  2.3194 -0.0962
 2276SOL    HW2 7421   6.016   3.086   3.109 -0.7203 -0.8456 -1.5266
 2277SOL     OW 7422   4.550   4.838   3.310 -0.4729 -0.1397  0.2767
 2277SOL    HW1 7423   4.510   4.874   3.389 -0.3591 -0.8496  0.6580
 2277SOL    HW2 7424   4.478   4.794   3.264 -0.2908 -0.7886  0.6023
 2278SOL     OW 7425   7.252   1.818   0.287 -0.4314 -0.1444 -0.4537
 2278SOL    HW1 7426   7.279   1.837   0.377  0.2583  0.6359 -0.8146
 2278SOL    HW2 7427   7.159   1.843   0.284 -0.1122  1.0819 -0.3113
 2279SOL     OW 7428   4.888   2.992   0.057 -0.7248  0.0718 -0.2761
 2279SOL    HW1 7429   4.951   2.921   0.043 -0.3938  0.6171 -1.7237
 2279SOL    HW2 7430   4.896   3.012   0.151 -0.5669 -1.5372  0.0951
 2280SOL     OW 7431   0.389   5.162   2.229 -0.3907 -0.1195 -0.5217
 2280SOL    HW1 7432   0.293   5.169   2.223 -0.5791 -1.9698 -0.2957
 2280SOL    HW2 7433   0.405   5.148   2.323  0.2063  1.2673 -0.4041
 2281SOL     OW 7434   0.493   0.110   3.373  0.5173 -0.0724 -0.0568
 2281SOL    HW1 7435   0.498   0.066   3.288 -1.7785  0.7319 -0.6820
 2281SOL    HW2 7436   0.431   0.057   3.423  0.4271  0.5094  0.4474
 2282SOL     OW 7437   1.928   2.982   3.407 -0.0368 -0.7251  0.1177
 2282SOL    HW1 7438   1.895   3.043   3.341  0.0958 -0.7108  0.0647
 2282SOL    HW2 7439   2.012   2.952   3.372 -0.5992 -1.7834 -0.3806
 2283SOL     OW 7440   5.581   4.806   1.316 -0.1300  0.5170  0.3345
 2283SOL    HW1 7441   5.530   4.739   1.272 -0.9862  0.6387  1.1076
 2283SOL    HW2 7442   5.672   4.781   1.301 -0.3580  0.9916 -2.1212
 2284SOL     OW 7443   6.883   2.246   3.212 -0.4410  0.0239 -0.4233
 2284SOL    HW1 7444   6.935   2.198   3.276 -1.1397  1.3969  1.2427
 2284SOL    HW2 7445   6.938   2.321   3.188 -0.9113  0.5080 -0.0155
 2285SOL     OW 7446   2.371   0.486   1.960  0.1584 -0.7468  0.4395
 2285SOL    HW1 7447   2.424   0.560   1.931  1.4224 -0.5333  2.9568
 2285SOL    HW2 7448   2.281   0.516   1.955  0.6061  0.6880  0.6535
 2286SOL     OW 7449   7.110   1.987   0.781 -0.0034 -0.5631 -0.4248
 2286SOL    HW1 7450   7.045   1.919   0.798 -1.4479  1.1284  1.2495
 2286SOL    HW2 7451   7.096   2.052   0.851  2.0819  0.8988 -1.2549
 2287SOL     OW 7452   4.497   1.901   0.053 -0.0924  0.0487 -0.0148
 2287SOL    HW1 7453   4.503   1.950   0.135 -1.2549 -0.6636  0.5228
 2287SOL    HW2 7454   4.582   1.857   0.045 -0.0313 -0.0069  0.8811
 2288SOL     OW 7455   0.971   0.202   1.730 -0.5910  0.0256 -0.1457
 2288SOL    HW1 7456   0.931   0.148   1.797 -0.2716 -0.9689 -0.7310
 2288SOL    HW2 7457   0.992   0.141   1.659  0.3118  0.8130 -0.5857
 2289SOL     OW 7458   1.258   1.940   1.188 -0.2346  0.5703 -0.0566
 2289SOL    HW1 7459   1.280   1.857   1.231  1.4144  0.9620 -0.0754
 2289SOL    HW2 7460   1.338   1.964   1.140 -1.7470  0.5127 -2.8071
 2290SOL     OW 7461   5.696   1.436   3.318 -0.3962 -0.2845  0.4330
 2290SOL    HW1 7462   5.771   1.379   3.298 -0.5651 -0.5430  0.5381
 2290SOL    HW2 7463   5.696   1.500   3.247  0.0939 -0.1118  0.5802
 2291SOL     OW 7464   1.937   3.266   2.907 -0.3459  0.2957 -0.4467
 2291SOL    HW1 7465   1.906   3.186   2.949  0.0901 -0.1931 -1.0359
 2291SOL    HW2 7466   1.863   3.295   2.854 -0.6917  0.5859  0.1848
 2292SOL     OW 7467   5.637   2.563   3.113 -0.2818  0.2292  0.5678
 2292SOL    HW1 7468   5.549   2.589   3.087 -0.6708 -1.6554 -0.1648
 2292SOL    HW2 7469   5.628   2.529   3.202 -0.7519 -1.9159 -0.2445
 2293SOL     OW 7470   6.821   2.039   2.663  0.5531  0.4462 -0.3857
 2293SOL    HW1 7471   6.826   2.025   2.568  2.6516  0.9839 -0.4042
 2293SOL    HW2 7472   6.729   2.059   2.679 -0.5916 -2.9024 -1.7944
 2294SOL     OW 7473   7.081   4.137   2.930  0.2562 -0.0219  0.1450
 2294SOL    HW1 7474   7.062   4.230   2.942 -1.2808 -0.4539  1.3404
 2294SOL    HW2 7475   7.105   4.129   2.837  2.4383  1.8566  0.4525
 2295SOL     OW 7476   4.945   0.905   3.093 -0.0211  0.3079 -0.2762
 2295SOL    HW1 7477   4.983   0.972   3.150 -0.5160  1.7798 -1.6163
 2295SOL    HW2 7478   4.904   0.843   3.154 -1.2211  2.2361  1.0125
 2296SOL     OW 7479   7.333   0.075   1.505  0.8873  0.5732  0.8001
 2296SOL    HW1 7480   7.411   0.046   1.458  0.7938  0.8204  0.4954
 2296SOL    HW2 7481   7.359   0.158   1.545  2.1645 -1.2414  4.1719
 2297SOL     OW 7482   0.279   0.638   2.113 -0.1183 -0.0999 -0.2727
 2297SOL    HW1 7483   0.292   0.619   2.020  1.2678  1.5904 -0.4808
 2297SOL    HW2 7484   0.262   0.553   2.153 -1.9273 -0.7442 -2.2080
 2298SOL     OW 7485   3.081   0.252   3.200  0.2672  0.1126 -0.2722
 2298SOL    HW1 7486   3.038   0.319   3.147 -0.5837  0.7914  1.2023
 2298SOL    HW2 7487   3.022   0.238   3.274  1.6014 -0.4471  0.7444
 2299SOL     OW 7488   7.030   1.597   2.836 -0.1404  0.2892 -0.2784
 2299SOL    HW1 7489   7.051   1.685   2.868 -0.4145 -0.0240  0.8028
 2299SOL    HW2 7490   6.941   1.605   2.803 -0.4222  0.2678  0.4534
 2300SOL     OW 7491   2.601   1.859   3.243 -0.0597 -0.1938  0.9894
 2300SOL    HW1 7492   2.633   1.800   3.174  0.8510  0.3743  0.9128
 2300SOL    HW2 7493   2.528   1.906   3.203  1.4514  1.2825 -0.1565
 2301SOL     OW 7494   6.775   4.023   2.737 -0.3130 -0.4594 -0.5580
 2301SOL    HW1 7495   6.865   4.053   2.720 -1.6681  3.5412 -1.7473
 2301SOL    HW2 7496   6.754   4.059   2.823 -1.4373  0.5764 -1.2429
 2302SOL     OW 7497   4.443   2.036   2.946  0.1000  0.6922  0.2632
 2302SOL    HW1 7498   4.387   2.072   3.016 -1.8801 -0.1171 -0.8489
 2302SOL    HW2 7499   4.455   2.109   2.886 -1.3417  0.3974 -0.4216
 2303SOL     OW 7500   0.825   3.678   1.483  0.0761 -0.2629  1.1674
 2303SOL    HW1 7501   0.916   3.661   1.507  0.6453  0.8608  0.0002
 2303SOL    HW2 7502   0.814   3.633   1.399  0.9136  2.8243 -0.8010
 2304SOL     OW 7503   4.467   0.421   2.263 -0.2573  0.2752 -0.0036
 2304SOL    HW1 7504   4.482   0.515   2.256  0.1719  0.2635  0.6411
 2304SOL    HW2 7505   4.555   0.384   2.275 -0.4469 -0.1862 -0.0158
 2305SOL     OW 7506   6.367   0.558   0.459 -0.7027  0.4260  0.0887
 2305SOL    HW1 7507   6.367   0.606   0.377  1.6835  0.9248  0.3053
 2305SOL    HW2 7508   6.431   0.488   0.446 -1.2388 -0.2852  1.0920
 2306SOL     OW 7509   7.307   2.620   0.633  0.2468 -0.7156  0.7308
 2306SOL    HW1 7510   7.274   2.561   0.701 -1.3700 -0.0388  0.5779
 2306SOL    HW2 7511   7.295   2.708   0.670  0.9587 -0.4042  0.2410
 2307SOL     OW 7512   0.505   4.143   3.321 -0.2149  0.0920  0.3083
 2307SOL    HW1 7513   0.513   4.187   3.406 -1.2015  2.0342 -0.5334
 2307SOL    HW2 7514   0.440   4.075   3.335  0.6581 -0.5542  1.4293
 2308SOL     OW 7515   0.273   4.960   1.534 -0.0467 -0.1382 -0.3699
 2308SOL    HW1 7516   0.311   5.042   1.565  0.4917 -0.6641  0.4045
 2308SOL    HW2 7517   0.320   4.892   1.583 -2.7259 -0.7911  1.4650
 2309SOL     OW 7518   2.803   3.696   0.786  0.3164  0.1126 -0.4934
 2309SOL    HW1 7519   2.718   3.739   0.790  0.4789  0.5693 -1.7218
 2309SOL    HW2 7520   2.782   3.602   0.788 -0.3310  0.1852 -2.1282
 2310SOL     OW 7521   1.497   4.268   3.007 -0.2945 -0.2610 -0.2903
 2310SOL    HW1 7522   1.514   4.313   3.089 -0.7909 -1.6049  0.6018
 2310SOL    HW2 7523   1.405   4.288   2.987 -0.0870  0.3049 -0.6760
 2311SOL     OW 7524   7.346   4.863   1.205 -0.4220  0.4894  0.6543
 2311SOL    HW1 7525   7.259   4.860   1.244  0.1332 -0.4168  1.8736
 2311SOL    HW2 7526   7.333   4.830   1.116 -1.1793 -0.5318  1.1225
 2312SOL     OW 7527   1.269   1.790   2.913 -0.3739 -0.3759  0.7478
 2312SOL    HW1 7528   1.179   1.821   2.919  0.4356  2.3891 -0.0663
 2312SOL    HW2 7529   1.295   1.808   2.823  1.1204 -0.8197  1.0659
 2313SOL     OW 7530   5.597   1.766   1.983  0.2198 -0.1361  0.0394
 2313SOL    HW1 7531   5.529   1.805   1.929  1.0022 -0.3071 -1.1155
 2313SOL    HW2 7532   5.563   1.679   2.006  0.1610 -0.3379 -0.7753
 2314SOL     OW 7533   7.300   4.122   1.471  0.2964  1.2839 -0.2435
 2314SOL    HW1 7534   7.209   4.122   1.440  0.3802 -0.2913 -0.5657
 2314SOL    HW2 7535   7.296   4.079   1.556  0.7680  0.9710 -0.3767
 2315SOL     OW 7536   6.459   3.470   2.934 -0.1823  0.4505 -0.5621
 2315SOL    HW1 7537   6.368   3.464   2.963  0.2551 -2.2617  0.5767
 2315SOL    HW2 7538   6.510   3.466   3.015  0.9545 -1.4364 -1.2902
 2316SOL     OW 7539   4.398   0.112   1.951 -0.1802  0.5000 -0.5672
 2316SOL    HW1 7540   4.357   0.170   2.015 -2.4663  0.3881 -1.8422
 2316SOL    HW2 7541   4.416   0.169   1.876  1.9884  0.5157 -0.0954
 2317SOL     OW 7542   3.269   0.374   2.810 -0.0186 -0.4312 -0.2447
 2317SOL    HW1 7543   3.298   0.283   2.817 -0.4645 -0.5137  0.6420
 2317SOL    HW2 7544   3.320   0.409   2.737 -0.2103 -1.5253 -0.9349
 2318SOL     OW 7545   1.512   4.521   0.124  0.3118  0.5203  0.8154
 2318SOL    HW1 7546   1.599   4.533   0.162  1.6821 -2.8630 -0.8343
 2318SOL    HW2 7547   1.520   4.558   0.036  0.7829 -1.4104 -0.0074
 2319SOL     OW 7548   4.735   1.021   2.131 -0.1751 -0.3006  0.1301
 2319SOL    HW1 7549   4.830   1.010   2.126 -0.2107 -1.0447  0.9457
 2319SOL    HW2 7550   4.701   0.932   2.133 -0.8584 -0.0357  0.3839
 2320SOL     OW 7551   4.567   2.848   2.319 -0.5049 -0.1769  0.3351
 2320SOL    HW1 7552   4.658   2.836   2.291 -0.6962 -0.5660 -0.1462
 2320SOL    HW2 7553   4.550   2.941   2.306  0.6010  0.4502  2.8628
 2321SOL     OW 7554   6.476   2.066   0.565  0.5212  0.2324 -0.3413
 2321SOL    HW1 7555   6.491   2.099   0.654  0.2996  0.5818 -0.4315
 2321SOL    HW2 7556   6.559   2.024   0.541  0.0522 -1.3399  0.6483
 2322SOL     OW 7557   6.416   3.239   2.086  0.1915 -0.3405 -0.1775
 2322SOL    HW1 7558   6.372   3.195   2.159  0.2166 -0.6517 -0.3459
 2322SOL    HW2 7559   6.374   3.325   2.081 -0.1195 -0.4844 -0.0764
 2323SOL     OW 7560   4.200   0.449   1.569  0.1182  0.1739 -0.3804
 2323SOL    HW1 7561   4.139   0.448   1.495  0.6143 -0.1694 -0.7874
 2323SOL    HW2 7562   4.280   0.410   1.535  0.3794  0.0882  0.3175
 2324SOL     OW 7563   7.314   0.106   3.013  0.2267 -0.3481 -0.3012
 2324SOL    HW1 7564   7.300   0.192   3.052 -1.2286  0.2919 -2.0975
 2324SOL    HW2 7565   7.226   0.068   3.008  0.0770  0.1518 -4.0054
 2325SOL     OW 7566   3.543   4.779   0.881 -0.3123  0.2068  0.6095
 2325SOL    HW1 7567   3.475   4.758   0.816  0.0403  2.8797 -0.7624
 2325SOL    HW2 7568   3.495   4.789   0.963 -0.9529 -1.8939  0.5694
 2326SOL     OW 7569   5.806   4.381   0.360 -0.7508 -0.4997  0.1894
 2326SOL    HW1 7570   5.842   4.468   0.344 -0.5900 -0.3691  1.1809
 2326SOL    HW2 7571   5.819   4.367   0.454 -0.6714 -1.6360  0.0245
 2327SOL     OW 7572   2.681   0.459   1.221  0.3772 -0.6320 -0.3182
 2327SOL    HW1 7573   2.636   0.489   1.143  0.4122  1.6998  0.4881
 2327SOL    HW2 7574   2.657   0.522   1.289 -0.0330 -2.8100  1.7294
 2328SOL     OW 7575   3.338   3.013   1.357 -0.2632  0.0525 -0.2138
 2328SOL    HW1 7576   3.280   2.955   1.308  1.7482  0.0826 -2.8103
 2328SOL    HW2 7577   3.403   2.955   1.397 -1.2318  0.1402  1.6316
 2329SOL     OW 7578   1.692   1.165   0.946  0.0832 -0.0370  0.1274
 2329SOL    HW1 7579   1.651   1.103   0.886 -1.2541  2.1131 -1.3332
 2329SOL    HW2 7580   1.730   1.231   0.888  0.8282  0.8862  1.6279
 2330SOL     OW 7581   5.246   2.838   2.544 -0.3354 -0.7186  0.2912
 2330SOL    HW1 7582   5.306   2.813   2.614  2.7605  0.8660 -1.5919
 2330SOL    HW2 7583   5.240   2.760   2.489  1.0718 -0.5282 -0.1619
 2331SOL     OW 7584   1.446   3.683   2.745 -0.1878 -0.6665  0.4183
 2331SOL    HW1 7585   1.431   3.588   2.745  0.3540 -0.7790 -1.1920
 2331SOL    HW2 7586   1.507   3.697   2.817 -1.9945 -1.1997  2.1547
 2332SOL     OW 7587   1.274   2.612   1.419  0.5185  0.9168  0.2744
 2332SOL    HW1 7588   1.293   2.624   1.326  1.0369 -0.3217  0.2016
 2332SOL    HW2 7589   1.319   2.531   1.443  1.0612  1.6215  1.8002
 2333SOL     OW 7590   2.197   0.906   2.785  0.5378 -0.5661 -0.1018
 2333SOL    HW1 7591   2.103   0.900   2.801  0.0577  0.9655 -1.9200
 2333SOL    HW2 7592   2.228   0.970   2.850  0.1124 -0.2981 -0.1567
 2334SOL     OW 7593   1.897   1.112   2.784 -0.1532 -0.0077  0.4245
 2334SOL    HW1 7594   1.968   1.167   2.753  1.7325 -2.1594  0.6147
 2334SOL    HW2 7595   1.877   1.145   2.872  1.6950 -0.2438  0.9755
 2335SOL     OW 7596   5.638   3.004   0.129 -0.3496 -0.0690 -0.9537
 2335SOL    HW1 7597   5.683   3.083   0.099  0.2482 -0.7319 -1.8976
 2335SOL    HW2 7598   5.656   2.940   0.060  1.8100 -1.9467  1.1895
 2336SOL     OW 7599   6.236   4.705   2.196 -0.4354  0.3128 -0.2271
 2336SOL    HW1 7600   6.278   4.624   2.225  0.3423  1.6084  2.6165
 2336SOL    HW2 7601   6.175   4.726   2.266 -0.8579  2.0348 -1.0656
 2337SOL     OW 7602   3.784   3.776   1.455  0.1522 -0.3048  0.1298
 2337SOL    HW1 7603   3.691   3.782   1.434  0.2109  1.2839  0.1659
 2337SOL    HW2 7604   3.786   3.757   1.549 -0.1509  0.0682  0.2144
 2338SOL     OW 7605   5.824   2.272   1.500 -0.3668  0.0159  0.6062
 2338SOL    HW1 7606   5.746   2.244   1.453  0.5112  1.4889 -1.9169
 2338SOL    HW2 7607   5.873   2.325   1.437  1.8641  0.5473  2.6177
 2339SOL     OW 7608   0.393   3.712   1.706  0.0109  0.2864 -0.0203
 2339SOL    HW1 7609   0.447   3.782   1.743 -0.2266  0.8602 -0.7502
 2339SOL    HW2 7610   0.311   3.717   1.756  0.2880 -0.0099  0.4798
 2340SOL     OW 7611   3.580   5.208   2.593  0.2768  0.3664 -0.0707
 2340SOL    HW1 7612   3.624   5.293   2.587  1.6472 -0.4127 -1.9350
 2340SOL    HW2 7613   3.487   5.229   2.595  0.6011  1.9991  2.3366
 2341SOL     OW 7614   4.445   0.338   3.110  0.0491  0.1130 -0.0287
 2341SOL    HW1 7615   4.415   0.425   3.085 -0.2826  0.6381  2.0233
 2341SOL    HW2 7616   4.364   0.290   3.131  0.3369 -0.1287  0.5335
 2342SOL     OW 7617   6.279   4.765   1.718 -0.5688  0.0486 -0.4202
 2342SOL    HW1 7618   6.205   4.732   1.769  0.2563 -2.5038 -0.7769
 2342SOL    HW2 7619   6.276   4.716   1.636 -0.8745  2.8628 -2.2499
 2343SOL     OW 7620   4.694   0.766   2.070  0.3815 -0.0653  0.0910
 2343SOL    HW1 7621   4.649   0.692   2.111 -0.2516 -0.7488 -1.7016
 2343SOL    HW2 7622   4.719   0.733   1.983  2.8750  0.8463  0.3787
 2344SOL     OW 7623   7.296   4.303   1.101  0.0494 -0.0299 -0.5934
 2344SOL    HW1 7624   7.352   4.263   1.167 -0.2255 -0.2304 -0.4809
 2344SOL    HW2 7625   7.343   4.289   1.019  0.2013 -0.1269 -0.4913
 2345SOL     OW 7626   0.680   0.966   1.858  0.1556  0.2580  0.1860
 2345SOL    HW1 7627   0.603   1.022   1.850  1.1920  1.6957 -0.2085
 2345SOL    HW2 7628   0.752   1.020   1.825  1.2470 -1.2422  0.0241
 2346SOL     OW 7629   3.874   2.404   3.408 -0.0956 -0.0144  0.5160
 2346SOL    HW1 7630   3.823   2.331   3.371  0.7788 -1.0193  1.2131
 2346SOL    HW2 7631   3.858   2.400   3.502  0.5839  0.1802  0.6489
 2347SOL     OW 7632   2.806   1.601   0.876 -0.7023 -0.5538 -0.5743
 2347SOL    HW1 7633   2.762   1.657   0.941 -0.6771  0.2141 -1.2054
 2347SOL    HW2 7634   2.824   1.519   0.923  0.5850  0.4804  0.8312
 2348SOL     OW 7635   5.464   4.918   2.371 -0.1361  0.1149  0.6415
 2348SOL    HW1 7636   5.430   4.933   2.460 -1.5057 -1.6433  0.4630
 2348SOL    HW2 7637   5.393   4.873   2.325  0.8030  0.3880 -1.1616
 2349SOL     OW 7638   0.008   5.003   2.596  0.1631 -0.2891  0.3241
 2349SOL    HW1 7639   0.027   4.911   2.613  2.2571  0.0328 -0.0430
 2349SOL    HW2 7640   0.020   5.046   2.681 -2.1189 -0.4715  0.8179
 2350SOL     OW 7641   4.387   5.325   2.277  0.1157 -0.1112 -0.1202
 2350SOL    HW1 7642   4.473   5.306   2.241  0.1920 -0.4363  0.2211
 2350SOL    HW2 7643   4.370   5.416   2.253  0.7715  0.1124  0.2314
 2351SOL     OW 7644   4.314   1.995   1.760  0.1406  0.0381  0.0855
 2351SOL    HW1 7645   4.240   1.953   1.804  0.6392 -0.8537  0.1032
 2351SOL    HW2 7646   4.310   2.087   1.787 -1.5000  0.2049 -0.6600
 2352SOL     OW 7647   3.210   2.542   0.077 -0.9442 -0.0677 -0.1644
 2352SOL    HW1 7648   3.124   2.586   0.070 -0.9073 -0.2108 -1.8830
 2352SOL    HW2 7649   3.198   2.459   0.031 -0.0475 -0.3778  0.1517
 2353SOL     OW 7650   5.736   4.745   2.353  0.6335 -0.0468 -0.2264
 2353SOL    HW1 7651   5.662   4.800   2.329 -1.4766 -2.2702  0.6645
 2353SOL    HW2 7652   5.769   4.783   2.434  1.4128  1.7649 -1.3451
 2354SOL     OW 7653   4.846   3.115   1.775 -0.4066  0.1389 -0.7218
 2354SOL    HW1 7654   4.921   3.057   1.759 -0.1469 -0.1483  1.2291
 2354SOL    HW2 7655   4.774   3.075   1.727 -0.2624 -1.9345  0.6447
 2355SOL     OW 7656   3.005   1.529   2.263  0.3240  0.1003  0.2468
 2355SOL    HW1 7657   3.019   1.555   2.354  0.1134  2.1589 -0.2572
 2355SOL    HW2 7658   3.080   1.565   2.216  0.2021 -0.5560 -0.4711
 2356SOL     OW 7659   2.618   3.509   1.467 -0.4850  0.2535  0.0885
 2356SOL    HW1 7660   2.527   3.494   1.442 -0.3875 -0.5625  0.2110
 2356SOL    HW2 7661   2.666   3.509   1.383 -0.5563  0.3951  0.0475
 2357SOL     OW 7662   5.810   2.172   0.586  0.1859  0.3246 -0.4054
 2357SOL    HW1 7663   5.825   2.198   0.495  1.6945 -0.2168 -0.3402
 2357SOL    HW2 7664   5.860   2.234   0.638  0.2289 -0.0393 -0.0055
 2358SOL     OW 7665   1.875   0.094   0.153 -0.7714  0.6957  0.2345
 2358SOL    HW1 7666   1.939   0.047   0.098  0.9354  1.1073  1.7716
 2358SOL    HW2 7667   1.871   0.043   0.233  0.2989  2.5042  1.5099
 2359SOL     OW 7668   1.808   4.051   1.014  0.3217  0.0525 -0.6102
 2359SOL    HW1 7669   1.781   4.131   1.060  1.3658 -0.1840  0.4591
 2359SOL    HW2 7670   1.803   3.983   1.080  1.5610 -0.3620 -0.9315
 2360SOL     OW 7671   6.626   4.082   3.004  0.4023 -0.2533  0.3292
 2360SOL    HW1 7672   6.549   4.087   2.948  1.2050  0.0212 -0.7811
 2360SOL    HW2 7673   6.591   4.062   3.091 -0.9661  0.5343 -0.0126
 2361SOL     OW 7674   2.500   4.678   2.073 -0.0640  0.0154 -0.8061
 2361SOL    HW1 7675   2.501   4.670   1.977 -0.1683 -0.4228 -0.7752
 2361SOL    HW2 7676   2.492   4.587   2.104  0.4014  0.1184 -0.3754
 2362SOL     OW 7677   1.032   0.197   1.288  0.2251  0.7595  0.1253
 2362SOL    HW1 7678   0.936   0.190   1.292  0.1374  0.0603 -1.8822
 2362SOL    HW2 7679   1.048   0.285   1.253  0.2525  0.5397 -0.4351
 2363SOL     OW 7680   2.153   3.196   1.242  0.1477 -0.0474 -0.4496
 2363SOL    HW1 7681   2.084   3.195   1.308  1.7800  0.7826  1.3715
 2363SOL    HW2 7682   2.169   3.288   1.225  2.3021 -0.1014  0.8972
 2364SOL     OW 7683   1.342   3.558   0.446 -0.3733  0.3092  0.6485
 2364SOL    HW1 7684   1.416   3.618   0.442 -1.0050  1.0663 -0.1241
 2364SOL    HW2 7685   1.337   3.520   0.358 -1.1408  0.5744  0.5691
 2365SOL     OW 7686   6.504   0.175   0.058  0.0226 -0.3069 -0.0346
 2365SOL    HW1 7687   6.475   0.266   0.050 -0.4680 -0.3582  0.9612
 2365SOL    HW2 7688   6.425   0.127   0.083  0.5617 -0.7795  0.8021
 2366SOL     OW 7689   4.957   3.596   0.727  0.0697  0.0316 -0.0015
 2366SOL    HW1 7690   5.021   3.612   0.658  1.1287 -0.7999  0.7546
 2366SOL    HW2 7691   4.969   3.668   0.789  0.8244 -0.5385  0.5252
 2367SOL     OW 7692   6.151   5.151   2.236 -0.5408 -0.0288  0.0530
 2367SOL    HW1 7693   6.165   5.203   2.316  0.5166  1.2580 -0.9298
 2367SOL    HW2 7694   6.233   5.105   2.223 -0.6031 -0.0010 -0.4516
 2368SOL     OW 7695   5.019   4.061   2.545 -0.2436  0.2253  0.3189
 2368SOL    HW1 7696   5.113   4.051   2.559 -0.6294 -1.5638  2.1360
 2368SOL    HW2 7697   4.998   3.997   2.477 -0.1109  0.9891 -0.4667
 2369SOL     OW 7698   2.443   1.934   0.836  0.1936  0.2472  0.0141
 2369SOL    HW1 7699   2.537   1.950   0.845  0.2589 -0.0597 -0.0892
 2369SOL    HW2 7700   2.401   2.015   0.866  0.5008  0.5294 -0.3135
 2370SOL     OW 7701   1.110   2.664   1.916 -0.2595 -0.0665  0.2523
 2370SOL    HW1 7702   1.047   2.627   1.854 -1.0034 -1.5823  1.8414
 2370SOL    HW2 7703   1.179   2.701   1.860 -0.9005 -1.3408 -1.4838
 2371SOL     OW 7704   3.441   1.743   1.367  0.0421  0.1233 -0.1429
 2371SOL    HW1 7705   3.424   1.832   1.400 -1.1218 -0.0691 -0.1759
 2371SOL    HW2 7706   3.526   1.750   1.324 -0.2120  1.3427 -0.5159
 2372SOL     OW 7707   5.261   4.167   1.113 -0.4828  0.3826 -0.1791
 2372SOL    HW1 7708   5.274   4.192   1.021 -0.4056  2.3225  0.3366
 2372SOL    HW2 7709   5.297   4.078   1.118  0.6071  0.6833 -1.7575
 2373SOL     OW 7710   3.679   3.340   3.005 -0.3382  0.1895 -0.5517
 2373SOL    HW1 7711   3.669   3.350   2.910 -2.4036  1.7252 -0.2463
 2373SOL    HW2 7712   3.590   3.343   3.039  0.4122  0.8115  1.5340
 2374SOL     OW 7713   3.646   0.218   2.270 -0.1317  0.5368 -0.0887
 2374SOL    HW1 7714   3.725   0.219   2.324  0.2165  0.6786 -0.5977
 2374SOL    HW2 7715   3.618   0.126   2.270 -0.6199  0.6600  1.0155
 2375SOL     OW 7716   5.696   4.155   1.860 -0.1789 -0.2838  0.0824
 2375SOL    HW1 7717   5.611   4.129   1.825  0.0032 -0.0512 -0.5377
 2375SOL    HW2 7718   5.676   4.197   1.944 -0.6930  0.0087 -0.1843
 2376SOL     OW 7719   1.217   1.831   0.719 -0.4456  0.4201  0.3603
 2376SOL    HW1 7720   1.210   1.832   0.624 -2.4358 -3.8837  0.2127
 2376SOL    HW2 7721   1.311   1.825   0.736 -0.1438 -1.5216 -1.5743
 2377SOL     OW 7722   0.954   3.353   1.924 -0.3333 -0.8763  0.6244
 2377SOL    HW1 7723   0.961   3.331   1.831  0.2779  0.1966  0.4024
 2377SOL    HW2 7724   0.870   3.397   1.933  0.5640  1.0721  0.1055
 2378SOL     OW 7725   4.316   0.785   1.395 -0.2057 -0.6556  0.1090
 2378SOL    HW1 7726   4.334   0.696   1.425  2.4513 -0.1699  0.2136
 2378SOL    HW2 7727   4.387   0.838   1.433 -0.3617  1.0971 -1.8420
 2379SOL     OW 7728   6.425   1.108   1.716 -0.2923  0.4147  0.3356
 2379SOL    HW1 7729   6.514   1.079   1.696  0.0259  0.5387  1.5160
 2379SOL    HW2 7730   6.405   1.069   1.801 -0.7532  1.6692  0.8373
 2380SOL     OW 7731   5.200   1.998   0.745 -0.3033  0.2723 -1.1264
 2380SOL    HW1 7732   5.157   2.031   0.824 -0.6601 -0.0893 -1.1647
 2380SOL    HW2 7733   5.128   1.979   0.685 -0.0907 -0.3323 -1.1979
 2381SOL     OW 7734   5.816   0.283   2.469  0.0881  0.3883  0.2906
 2381SOL    HW1 7735   5.876   0.239   2.409 -0.2836 -0.3785  0.4656
 2381SOL    HW2 7736   5.753   0.215   2.493  0.7224  0.4436  2.2235
 2382SOL     OW 7737   5.462   2.049   0.913 -0.0362  0.0607 -0.4035
 2382SOL    HW1 7738   5.432   2.067   0.824 -0.1439  0.8788 -0.2108
 2382SOL    HW2 7739   5.382   2.032   0.962 -0.0730  0.6863 -0.2338
 2383SOL     OW 7740   3.139   0.872   1.070  0.3707 -0.2266  0.2883
 2383SOL    HW1 7741   3.112   0.787   1.104  1.2199  0.2102  2.1793
 2383SOL    HW2 7742   3.218   0.894   1.120 -0.1204  1.8948  0.2394
 2384SOL     OW 7743   0.260   1.698   0.608  0.1662  0.5568  0.3634
 2384SOL    HW1 7744   0.223   1.654   0.531  1.7089 -2.0225  0.9714
 2384SOL    HW2 7745   0.202   1.673   0.680 -0.4424  1.7656  0.3201
 2385SOL     OW 7746   5.320   3.504   3.226  0.7981 -0.0454 -1.0076
 2385SOL    HW1 7747   5.405   3.526   3.264  0.6220 -1.0744  0.0266
 2385SOL    HW2 7748   5.338   3.491   3.133  1.5186  1.0352 -1.0268
 2386SOL     OW 7749   0.740   2.379   1.520 -0.0725 -0.2915 -0.2435
 2386SOL    HW1 7750   0.801   2.434   1.471 -0.5287 -0.9956 -1.6332
 2386SOL    HW2 7751   0.793   2.340   1.589  1.1080 -1.0317 -1.5287
 2387SOL     OW 7752   6.256   0.209   1.358 -0.3050  0.0900  0.0487
 2387SOL    HW1 7753   6.284   0.128   1.401  0.1930  0.3909  0.2967
 2387SOL    HW2 7754   6.306   0.278   1.402 -1.4524  0.6488  0.5287
 2388SOL     OW 7755   6.770   1.004   3.166 -0.0987 -0.2664 -0.0465
 2388SOL    HW1 7756   6.783   1.028   3.074  1.6058 -2.8194 -0.5783
 2388SOL    HW2 7757   6.678   1.025   3.183 -0.1997  1.1930 -2.0054
 2389SOL     OW 7758   7.134   1.460   2.157 -0.2528 -0.3872  0.1174
 2389SOL    HW1 7759   7.220   1.464   2.197 -0.9006 -2.4339  1.8867
 2389SOL    HW2 7760   7.095   1.545   2.175  1.5726  0.8441 -1.3391
 2390SOL     OW 7761   5.297   4.040   2.929 -0.7113  0.6140  0.5362
 2390SOL    HW1 7762   5.223   4.033   2.868  0.1034  1.3455 -0.5646
 2390SOL    HW2 7763   5.256   4.058   3.014 -1.8131  0.7058  0.0082
 2391SOL     OW 7764   1.271   4.535   1.870 -0.0109  0.0841  0.1618
 2391SOL    HW1 7765   1.244   4.618   1.910  0.5817  0.2987  0.1305
 2391SOL    HW2 7766   1.323   4.562   1.793  1.3362 -0.2991  0.9106
 2392SOL     OW 7767   1.992   1.351   3.159  0.0726 -0.1070  0.0262
 2392SOL    HW1 7768   1.943   1.427   3.131 -1.2641 -1.0849 -0.3953
 2392SOL    HW2 7769   2.079   1.362   3.120 -0.3817  0.7460 -0.7595
 2393SOL     OW 7770   6.365   4.855   2.574 -0.9258  0.2159 -0.3117
 2393SOL    HW1 7771   6.420   4.872   2.497 -0.2334  1.6267  0.4626
 2393SOL    HW2 7772   6.294   4.919   2.566  0.0450  1.5179  1.0507
 2394SOL     OW 7773   0.352   1.128   1.796  0.3205  0.1332  0.0423
 2394SOL    HW1 7774   0.262   1.156   1.813 -0.4805 -1.7066 -0.8594
 2394SOL    HW2 7775   0.400   1.151   1.876 -1.1100  0.4821  0.8404
 2395SOL     OW 7776   0.358   0.712   1.508 -0.0892 -0.4642  0.0786
 2395SOL    HW1 7777   0.382   0.804   1.521  1.2539 -0.8613  0.5295
 2395SOL    HW2 7778   0.266   0.715   1.481 -1.1022  0.7988  3.2958
 2396SOL     OW 7779   6.108   1.554   0.879 -0.2842  0.3846  0.0587
 2396SOL    HW1 7780   6.051   1.477   0.874  0.3272 -0.0165 -0.9785
 2396SOL    HW2 7781   6.048   1.627   0.887 -0.8613 -0.2479  2.2010
 2397SOL     OW 7782   4.266   2.581   3.131  0.4845 -0.2612  0.2861
 2397SOL    HW1 7783   4.285   2.644   3.061 -1.4624  0.9606  0.8066
 2397SOL    HW2 7784   4.350   2.569   3.175  1.8446 -1.2374 -2.3167
 2398SOL     OW 7785   4.514   3.912   2.288 -0.2831  0.1198  0.3215
 2398SOL    HW1 7786   4.451   3.842   2.307 -0.9836  1.0099  1.3719
 2398SOL    HW2 7787   4.589   3.892   2.345  0.8765 -1.4807 -1.6090
 2399SOL     OW 7788   5.256   3.970   2.609 -0.0483 -0.0869  0.5014
 2399SOL    HW1 7789   5.262   3.879   2.581  0.6010 -0.6949  2.4313
 2399SOL    HW2 7790   5.332   4.013   2.570  0.6499 -0.8241  1.0236
 2400SOL     OW 7791   7.160   1.101   0.927  0.0198  0.1324 -0.3561
 2400SOL    HW1 7792   7.084   1.137   0.880 -0.9153 -1.2411  0.0472
 2400SOL    HW2 7793   7.175   1.016   0.886  1.2506  0.3047 -0.2997
 2401SOL     OW 7794   5.167   1.728   2.219  0.0490  0.1385  0.3227
 2401SOL    HW1 7795   5.111   1.802   2.243  1.6059  1.4606  0.0259
 2401SOL    HW2 7796   5.170   1.729   2.124  0.6669  0.1647  0.3370
 2402SOL     OW 7797   6.298   0.963   0.232 -0.2126 -0.3841 -0.5223
 2402SOL    HW1 7798   6.224   0.909   0.204  0.6933 -0.2652 -3.4925
 2402SOL    HW2 7799   6.268   1.053   0.219  0.6113 -0.3398 -2.4818
 2403SOL     OW 7800   2.854   5.010   0.238 -1.0363 -0.3608  0.1887
 2403SOL    HW1 7801   2.800   4.936   0.209  0.6244 -0.7866 -2.1074
 2403SOL    HW2 7802   2.886   5.049   0.157 -1.3277  2.5434  1.3635
 2404SOL     OW 7803   5.465   3.714   0.125  0.0104 -0.0995 -0.7588
 2404SOL    HW1 7804   5.404   3.647   0.095  0.5220  0.0802 -2.2919
 2404SOL    HW2 7805   5.552   3.677   0.109  0.3041  0.2103  0.0793
 2405SOL     OW 7806   2.687   4.881   1.700  0.0851 -0.4400  0.0966
 2405SOL    HW1 7807   2.723   4.875   1.788 -1.3877  0.8213  0.8398
 2405SOL    HW2 7808   2.707   4.797   1.659 -0.3914 -1.5807  2.1051
 2406SOL     OW 7809   0.136   0.053   0.794  0.0384  0.2260 -0.4740
 2406SOL    HW1 7810   0.211   0.025   0.847 -1.3175 -0.6383  1.0321
 2406SOL    HW2 7811   0.138   0.149   0.799  1.4720  0.2667 -1.1228
 2407SOL     OW 7812   6.207   3.407   3.042  0.6745 -0.6807 -0.6120
 2407SOL    HW1 7813   6.152   3.394   3.119  2.0111 -1.6659  0.1964
 2407SOL    HW2 7814   6.170   3.348   2.976 -1.1842  0.9870 -1.1795
 2408SOL     OW 7815   2.945   1.638   1.540 -0.4418  0.0823  0.4231
 2408SOL    HW1 7816   3.035   1.643   1.508 -1.0151  1.0805 -1.1016
 2408SOL    HW2 7817   2.949   1.675   1.628  1.0259 -2.0487  1.3579
 2409SOL     OW 7818   4.472   0.685   2.226  0.1304  0.1901  0.5244
 2409SOL    HW1 7819   4.378   0.676   2.208  0.4863 -0.4970 -1.1302
 2409SOL    HW2 7820   4.497   0.767   2.185  0.6136 -0.5655 -0.7490
 2410SOL     OW 7821   6.511   1.051   2.976 -0.3381  0.4137  0.6359
 2410SOL    HW1 7822   6.554   0.992   2.915 -0.8819  0.9979 -0.3336
 2410SOL    HW2 7823   6.431   1.005   3.001 -0.5710  0.5733  0.1841
 2411SOL     OW 7824   6.258   2.695   2.068  1.2285  0.4632  0.1418
 2411SOL    HW1 7825   6.292   2.701   2.157  1.7821  0.2457 -0.0508
 2411SOL    HW2 7826   6.335   2.706   2.011  1.0516 -0.4051 -0.2920
 2412SOL     OW 7827   1.788   0.290   0.813 -0.6756 -0.3823 -0.2656
 2412SOL    HW1 7828   1.719   0.270   0.750 -1.7265 -0.8222  0.9832
 2412SOL    HW2 7829   1.829   0.205   0.832  0.2515 -0.1232 -1.0147
 2413SOL     OW 7830   3.468   3.777   3.272  0.2780 -0.3389  0.1836
 2413SOL    HW1 7831   3.395   3.838   3.261  1.1742  1.1815  1.9305
 2413SOL    HW2 7832   3.514   3.780   3.189 -0.3831  0.4696 -0.1754
 2414SOL     OW 7833   7.236   3.349   1.160  0.3031  0.1035 -0.4818
 2414SOL    HW1 7834   7.301   3.279   1.149  0.1871 -0.0989  0.0652
 2414SOL    HW2 7835   7.200   3.334   1.247 -0.3680  0.3069 -0.7174
 2415SOL     OW 7836   1.610   5.060   1.294  0.4168 -0.1582 -0.0968
 2415SOL    HW1 7837   1.585   5.142   1.253 -0.2469 -0.5730 -0.5253
 2415SOL    HW2 7838   1.705   5.056   1.283  0.2448 -0.3542 -1.7760
 2416SOL     OW 7839   0.599   2.254   2.147  0.2494  0.0550  0.0457
 2416SOL    HW1 7840   0.539   2.197   2.195  2.0804 -3.1313 -1.0997
 2416SOL    HW2 7841   0.549   2.283   2.071 -0.5546 -0.6476  0.2854
 2417SOL     OW 7842   0.510   4.418   0.964 -0.3825  0.0367 -0.1953
 2417SOL    HW1 7843   0.602   4.429   0.987 -0.3653 -1.1357  0.3371
 2417SOL    HW2 7844   0.468   4.390   1.045 -0.9319 -0.9107 -0.7890
 2418SOL     OW 7845   0.012   1.314   0.788 -0.1317 -0.2669 -0.0087
 2418SOL    HW1 7846   0.078   1.246   0.801 -1.5009 -1.8580 -1.0203
 2418SOL    HW2 7847  -0.024   1.328   0.876 -0.3814 -1.4418  0.0925
 2419SOL     OW 7848   4.669   4.081   1.906 -0.5383  0.1278  0.3263
 2419SOL    HW1 7849   4.679   4.076   1.811  0.1540 -1.1855  0.4373
 2419SOL    HW2 7850   4.600   4.018   1.926  0.8081 -1.2543  0.8583
 2420SOL     OW 7851   6.696   4.063   1.928  0.1536  0.4737 -0.1234
 2420SOL    HW1 7852   6.766   4.075   1.864  0.0853  0.3962 -0.2137
 2420SOL    HW2 7853   6.635   4.135   1.911  0.7698  1.2165  0.7024
 2421SOL     OW 7854   1.741   5.040   3.466 -0.2522 -0.2434  0.5795
 2421SOL    HW1 7855   1.791   5.014   3.544 -0.5696  1.2819  1.3193
 2421SOL    HW2 7856   1.671   4.976   3.461 -0.7618  0.1428  2.0993
 2422SOL     OW 7857   3.734   3.460   1.539  0.5773 -0.1164  0.3761
 2422SOL    HW1 7858   3.745   3.469   1.444 -0.0274  4.0726  0.5230
 2422SOL    HW2 7859   3.641   3.476   1.554  1.3075  3.9720  1.8394
 2423SOL     OW 7860   2.692   4.928   2.998 -0.5028 -0.1993 -0.1951
 2423SOL    HW1 7861   2.768   4.905   2.945 -0.1371 -0.8806  0.5974
 2423SOL    HW2 7862   2.618   4.891   2.951 -0.0941 -1.5519  0.1898
 2424SOL     OW 7863   4.198   3.113   0.887  0.7009  0.6285  0.3300
 2424SOL    HW1 7864   4.207   3.055   0.811  1.9449  0.5947  0.4830
 2424SOL    HW2 7865   4.135   3.068   0.944  2.3947 -1.1278  0.9160
 2425SOL     OW 7866   3.083   4.732   0.374 -0.1878  0.0095 -0.1471
 2425SOL    HW1 7867   3.022   4.661   0.357 -0.5179 -0.0080  1.0318
 2425SOL    HW2 7868   3.147   4.726   0.303 -0.4742 -1.1651 -0.3289
 2426SOL     OW 7869   0.119   4.393   3.215  0.2214 -0.5605  0.1225
 2426SOL    HW1 7870   0.122   4.472   3.270  1.0221 -0.0583 -0.6285
 2426SOL    HW2 7871   0.037   4.401   3.167  0.2474 -0.2443  0.1283
 2427SOL     OW 7872   2.077   3.259   0.823 -0.0468 -0.0239  0.6932
 2427SOL    HW1 7873   2.019   3.195   0.865 -1.9626  1.4226  0.3547
 2427SOL    HW2 7874   2.098   3.220   0.738  0.7165 -1.1984  1.3704
 2428SOL     OW 7875   0.609   0.201   2.937  0.3248  0.7515 -0.3126
 2428SOL    HW1 7876   0.705   0.200   2.936  0.3255  0.6915 -0.7592
 2428SOL    HW2 7877   0.585   0.163   2.852 -0.0684  2.6624 -1.1037
 2429SOL     OW 7878   5.760   4.400   1.501 -0.5071  0.3673  0.3628
 2429SOL    HW1 7879   5.816   4.458   1.450  0.3785 -0.3352  0.5060
 2429SOL    HW2 7880   5.689   4.376   1.442  0.8253 -0.9344 -0.7973
 2430SOL     OW 7881   4.644   3.871   3.299 -0.1054 -0.2285  0.2077
 2430SOL    HW1 7882   4.734   3.876   3.269 -0.5651  1.0972 -1.0624
 2430SOL    HW2 7883   4.632   3.950   3.352 -0.5779 -0.2841  0.1892
 2431SOL     OW 7884   0.756   4.812   3.268  0.5098  0.0183  0.1718
 2431SOL    HW1 7885   0.710   4.869   3.330  0.5925  0.6177 -0.3053
 2431SOL    HW2 7886   0.825   4.771   3.320 -1.3240 -1.9385  1.2375
 2432SOL     OW 7887   2.476   5.006   1.816 -0.3524  0.6396 -0.4989
 2432SOL    HW1 7888   2.416   5.068   1.774  1.4229  2.2557 -0.7412
 2432SOL    HW2 7889   2.525   4.968   1.744 -1.2467 -0.9379 -0.3273
 2433SOL     OW 7890   1.085   1.523   3.372 -0.6293  0.2002  0.2227
 2433SOL    HW1 7891   1.124   1.603   3.335 -3.8504  1.7606 -0.0816
 2433SOL    HW2 7892   1.047   1.550   3.455  0.3737 -1.6997  1.3976
 2434SOL     OW 7893   1.101   2.820   3.478  0.2272  0.0229  0.3767
 2434SOL    HW1 7894   1.145   2.792   3.398  0.7123  0.2551  0.5597
 2434SOL    HW2 7895   1.159   2.792   3.549 -0.0899  0.0212  0.6378
 2435SOL     OW 7896   6.225   2.175   2.705 -0.0819 -0.4203 -0.5638
 2435SOL    HW1 7897   6.298   2.148   2.649 -0.5007 -1.0631 -0.8166
 2435SOL    HW2 7898   6.148   2.134   2.666 -0.4614 -0.4294  0.1691
 2436SOL     OW 7899   6.656   2.948   2.923  0.6592  0.4678  0.0781
 2436SOL    HW1 7900   6.596   3.021   2.934  2.0238  1.5369  0.8963
 2436SOL    HW2 7901   6.616   2.892   2.856  0.4696  2.9288 -1.9811
 2437SOL     OW 7902   1.966   4.251   0.274  0.0121 -0.3832  0.5749
 2437SOL    HW1 7903   2.038   4.191   0.295  0.1944  0.0973  1.3681
 2437SOL    HW2 7904   1.896   4.194   0.241  1.2704 -0.7117 -1.7336
 2438SOL     OW 7905   3.626   3.812   3.053  0.1586  0.4517 -0.2554
 2438SOL    HW1 7906   3.564   3.849   2.990 -1.4855  1.3077  1.7091
 2438SOL    HW2 7907   3.712   3.838   3.021 -0.5378  0.1277 -2.5467
 2439SOL     OW 7908   3.877   0.783   1.165  0.1912 -0.1267 -0.0199
 2439SOL    HW1 7909   3.909   0.781   1.255  0.0081  2.8688  0.1969
 2439SOL    HW2 7910   3.943   0.833   1.117  0.2655 -1.6363 -1.5916
 2440SOL     OW 7911   1.851   3.672   2.927  0.2887  0.3043  0.0304
 2440SOL    HW1 7912   1.872   3.745   2.985 -0.2868  0.6696 -0.2102
 2440SOL    HW2 7913   1.932   3.655   2.880  0.6722  0.2045  0.7188
 2441SOL     OW 7914   2.148   5.291   0.267  0.1035  0.0368 -0.0759
 2441SOL    HW1 7915   2.193   5.369   0.234 -0.0016 -0.3187 -1.0791
 2441SOL    HW2 7916   2.216   5.224   0.273  0.0845  0.0472  0.2409
 2442SOL     OW 7917   2.741   3.026   2.546 -0.0195  0.7493  0.1684
 2442SOL    HW1 7918   2.832   3.048   2.564 -0.0186  0.7348  0.1822
 2442SOL    HW2 7919   2.708   3.098   2.492  0.8585 -0.6870 -2.4609
 2443SOL     OW 7920   0.189   3.090   1.386 -0.3570  0.3806  0.3603
 2443SOL    HW1 7921   0.222   3.137   1.463  2.6054 -0.2721 -0.3644
 2443SOL    HW2 7922   0.138   3.017   1.422  0.1304  0.6680  1.6865
 2444SOL     OW 7923   5.694   0.900   1.545  0.0107  0.2645 -0.4523
 2444SOL    HW1 7924   5.637   0.825   1.561 -1.1242  0.9909 -0.9917
 2444SOL    HW2 7925   5.636   0.976   1.548  0.8825  0.9965 -1.3483
 2445SOL     OW 7926   5.321   1.235   1.136  0.2670  0.1978 -0.1634
 2445SOL    HW1 7927   5.365   1.305   1.185 -2.3689  0.3587  2.2057
 2445SOL    HW2 7928   5.365   1.155   1.163 -0.6469  0.3642  2.0791
 2446SOL     OW 7929   3.325   1.046   2.116  0.2185  0.0287  0.5967
 2446SOL    HW1 7930   3.331   1.141   2.111  0.9673 -0.0480 -0.1521
 2446SOL    HW2 7931   3.305   1.018   2.026 -0.6854 -0.4834  0.9395
 2447SOL     OW 7932   2.148   1.187   2.694  0.0682 -0.1251  0.2888
 2447SOL    HW1 7933   2.116   1.212   2.607  1.1051 -0.1184 -0.1094
 2447SOL    HW2 7934   2.140   1.092   2.696 -1.5697  0.0068  0.8574
 2448SOL     OW 7935   7.122   1.392   2.707  0.0323  0.3023  0.1722
 2448SOL    HW1 7936   7.043   1.340   2.689  0.9468 -0.9316 -0.4966
 2448SOL    HW2 7937   7.094   1.458   2.770 -1.6078  0.1105 -0.3085
 2449SOL     OW 7938   0.969   1.660   0.708 -0.0197  0.1081  0.0074
 2449SOL    HW1 7939   1.041   1.715   0.675 -0.1543  1.7032  2.1184
 2449SOL    HW2 7940   0.981   1.661   0.803 -1.7510 -1.1645  0.2782
 2450SOL     OW 7941   2.046   3.070   0.283  0.2112  0.2558 -0.5171
 2450SOL    HW1 7942   2.088   2.984   0.285  0.3495  0.3332  1.2747
 2450SOL    HW2 7943   1.964   3.056   0.235  0.1679 -0.9039 -0.1295
 2451SOL     OW 7944   0.903   2.683   0.681 -0.0747  0.9105 -0.3403
 2451SOL    HW1 7945   0.824   2.630   0.687 -0.0150  0.6946 -1.2658
 2451SOL    HW2 7946   0.880   2.755   0.622  0.1514  1.3501  0.1005
 2452SOL     OW 7947   5.389   0.047   2.561  0.1056 -0.0133 -0.0806
 2452SOL    HW1 7948   5.400   0.029   2.468  0.3169  0.7587 -0.2098
 2452SOL    HW2 7949   5.294   0.045   2.575  0.0998 -0.7227 -0.1823
 2453SOL     OW 7950   1.135   2.497   2.872  0.1292  0.2683  0.1271
 2453SOL    HW1 7951   1.105   2.482   2.782  1.4342 -0.1111 -0.2756
 2453SOL    HW2 7952   1.106   2.419   2.920 -0.4784  0.4198  0.0147
 2454SOL     OW 7953   2.868   4.895   1.426 -0.3772  0.0756 -0.0634
 2454SOL    HW1 7954   2.826   4.875   1.510 -1.5628  1.2735 -0.3383
 2454SOL    HW2 7955   2.872   4.991   1.424  0.8739  0.0357 -0.8083
 2455SOL     OW 7956   3.883   0.630   1.503  0.0574  0.1688  0.1503
 2455SOL    HW1 7957   3.932   0.697   1.455 -2.2712  2.1495  0.3583
 2455SOL    HW2 7958   3.795   0.666   1.512 -0.7156 -1.9712  2.2844
 2456SOL     OW 7959   0.259   0.894   0.956 -0.3746  0.4930 -0.2476
 2456SOL    HW1 7960   0.300   0.813   0.925 -1.0797  0.0985 -0.1756
 2456SOL    HW2 7961   0.284   0.900   1.048 -0.3153  0.3632 -0.2556
 2457SOL     OW 7962   2.222   0.522   3.478  0.0594  0.3768 -0.2413
 2457SOL    HW1 7963   2.176   0.605   3.470  0.9141  0.6936 -2.5843
 2457SOL    HW2 7964   2.308   0.539   3.439  0.4828 -1.4407 -0.1775
 2458SOL     OW 7965   1.173   4.510   0.055 -0.2680  0.7237  0.1757
 2458SOL    HW1 7966   1.263   4.512   0.087  0.4593 -0.6152 -1.5812
 2458SOL    HW2 7967   1.119   4.511   0.134  1.2231  2.2447  1.2654
 2459SOL     OW 7968   5.615   0.394   3.028  0.6404 -0.7393  0.6571
 2459SOL    HW1 7969   5.598   0.415   2.936 -0.2496  0.5898  1.1059
 2459SOL    HW2 7970   5.534   0.353   3.058  0.6389 -0.4304  1.0687
 2460SOL     OW 7971   6.855   4.381   1.347  0.4303  0.0155 -0.3181
 2460SOL    HW1 7972   6.908   4.432   1.409  1.5144  0.5331 -1.6224
 2460SOL    HW2 7973   6.907   4.379   1.267 -1.3003  0.0898 -1.4977
 2461SOL     OW 7974   1.406   2.439   1.800 -0.0598  0.3137  0.1470
 2461SOL    HW1 7975   1.352   2.407   1.872  2.2444 -2.1587  0.9231
 2461SOL    HW2 7976   1.398   2.371   1.732  1.4874  0.2519  0.0049
 2462SOL     OW 7977   4.276   2.079   0.458 -0.2370  0.1777  0.0990
 2462SOL    HW1 7978   4.307   2.168   0.439 -0.8738  0.0707 -1.5702
 2462SOL    HW2 7979   4.181   2.087   0.461 -0.3073 -0.4724 -0.2581
 2463SOL     OW 7980   4.116   5.288   1.921 -0.1182  0.4874 -0.1845
 2463SOL    HW1 7981   4.192   5.296   1.978 -0.6745 -2.0284  1.0478
 2463SOL    HW2 7982   4.076   5.205   1.945 -1.3115  0.0502 -3.2085
 2464SOL     OW 7983   4.929   0.788   0.523 -1.3457  0.4967 -0.4983
 2464SOL    HW1 7984   4.890   0.758   0.605 -1.8909  1.8071 -0.2696
 2464SOL    HW2 7985   4.937   0.883   0.533 -1.0284  0.6198 -1.7989
 2465SOL     OW 7986   0.196   1.083   0.785  0.3656  0.4339  0.3037
 2465SOL    HW1 7987   0.208   1.026   0.862  1.4324  1.1865  0.7120
 2465SOL    HW2 7988   0.284   1.112   0.763  0.2815 -0.9205 -2.1394
 2466SOL     OW 7989   3.592   4.877   0.090 -0.3464 -0.3986  0.2491
 2466SOL    HW1 7990   3.550   4.814   0.148 -3.0619  0.6894 -0.3681
 2466SOL    HW2 7991   3.685   4.856   0.094 -0.9692 -3.3538  1.3072
 2467SOL     OW 7992   2.358   2.137   0.977  0.3821  0.2561  0.7782
 2467SOL    HW1 7993   2.284   2.196   0.965  0.4535  1.0665  3.5202
 2467SOL    HW2 7994   2.434   2.195   0.979  1.0416 -0.4728 -1.0650
 2468SOL     OW 7995   6.042   1.298   2.260 -0.2607  1.0041  0.6394
 2468SOL    HW1 7996   6.077   1.233   2.321 -4.7768 -2.7615 -0.2423
 2468SOL    HW2 7997   5.966   1.336   2.305 -1.6076  0.7073 -1.2505
 2469SOL     OW 7998   5.050   5.042   2.538  0.3998  0.3484 -0.5110
 2469SOL    HW1 7999   5.125   4.987   2.560 -0.9294 -0.9876  0.9255
 2469SOL    HW2 8000   5.075   5.130   2.567  1.1058 -0.2197  0.6957
 2470SOL     OW 8001   5.820   1.727   1.823 -0.1936 -0.0519 -0.1320
 2470SOL    HW1 8002   5.775   1.782   1.759 -0.6536  1.9844  1.7991
 2470SOL    HW2 8003   5.753   1.711   1.890  1.2356  1.0810  1.6605
 2471SOL     OW 8004   5.271   3.899   0.039  0.0618  0.0995 -0.5650
 2471SOL    HW1 8005   5.203   3.836   0.061  0.7384  0.1475  1.9293
 2471SOL    HW2 8006   5.353   3.852   0.054  0.6498  2.0096  3.4669
 2472SOL     OW 8007   2.480   0.320   2.848 -0.1561 -0.3345 -0.0766
 2472SOL    HW1 8008   2.385   0.311   2.860 -0.1412  1.0612  1.3074
 2472SOL    HW2 8009   2.489   0.372   2.769 -0.6526  1.6226  1.0922
 2473SOL     OW 8010   2.779   0.959   1.682  0.0261  0.6352 -0.3530
 2473SOL    HW1 8011   2.848   0.973   1.746 -2.0588  0.6466  2.0465
 2473SOL    HW2 8012   2.783   1.036   1.625  2.1199  0.4797 -0.4949
 2474SOL     OW 8013   2.044   1.449   1.307 -0.7035 -0.1597 -0.5793
 2474SOL    HW1 8014   2.012   1.493   1.228  1.4858  0.3315 -1.2522
 2474SOL    HW2 8015   2.110   1.387   1.274 -0.6315 -0.8348  0.7762
 2475SOL     OW 8016   4.055   3.441   3.323 -0.6101 -0.1720 -0.0194
 2475SOL    HW1 8017   4.055   3.523   3.372  0.0576 -0.6694  0.8492
 2475SOL    HW2 8018   4.148   3.424   3.305 -0.5181 -1.7937  1.6894
 2476SOL     OW 8019   6.108   4.051   2.782 -0.2442  0.1246  0.1323
 2476SOL    HW1 8020   6.129   4.123   2.722 -0.2930  0.2333  0.2447
 2476SOL    HW2 8021   6.138   3.973   2.737 -0.2949  0.2052 -0.0410
 2477SOL     OW 8022   3.927   4.023   0.170 -0.2097  0.1790  0.5562
 2477SOL    HW1 8023   3.977   4.068   0.101 -1.7680  0.1926 -0.6140
 2477SOL    HW2 8024   3.991   4.006   0.239  1.4725 -0.0257 -0.9809
 2478SOL     OW 8025   2.818   1.442   2.701  0.5395 -0.4046 -0.0522
 2478SOL    HW1 8026   2.872   1.520   2.708 -0.4582  0.1686  1.6754
 2478SOL    HW2 8027   2.881   1.370   2.694  1.4769  0.3999 -0.0312
 2479SOL     OW 8028   3.837   0.596   0.964  0.0368 -0.5554 -0.1663
 2479SOL    HW1 8029   3.913   0.581   0.907  0.6907 -1.9710  0.9774
 2479SOL    HW2 8030   3.875   0.633   1.044 -0.7921  0.8961 -0.4295
 2480SOL     OW 8031   6.271   1.239   0.244  0.4102 -0.3307 -0.3473
 2480SOL    HW1 8032   6.357   1.261   0.281 -0.2668  3.0979 -0.4416
 2480SOL    HW2 8033   6.218   1.318   0.258 -2.4921 -2.0073 -1.0707
 2481SOL     OW 8034   3.359   0.630   1.040 -0.0936 -0.4197  0.9586
 2481SOL    HW1 8035   3.287   0.657   1.098  0.2893 -0.2164  1.3464
 2481SOL    HW2 8036   3.316   0.588   0.966 -0.6256 -0.0842  1.0745
 2482SOL     OW 8037   5.944   3.118   1.961 -0.1844  0.1320  0.5377
 2482SOL    HW1 8038   6.027   3.083   1.926 -0.8074 -1.3276  0.4173
 2482SOL    HW2 8039   5.971   3.176   2.031  1.0276  1.5455 -1.0101
 2483SOL     OW 8040   5.674   3.320   0.604 -0.5704  0.2691  0.3405
 2483SOL    HW1 8041   5.732   3.274   0.543  0.1925  0.9253  0.5546
 2483SOL    HW2 8042   5.666   3.408   0.567 -1.5042  0.1752  0.2771
 2484SOL     OW 8043   4.926   0.458   0.335 -0.2344 -0.3447  0.4065
 2484SOL    HW1 8044   4.929   0.370   0.299  1.0220  0.0715 -0.6033
 2484SOL    HW2 8045   4.837   0.489   0.317  1.0559  1.1388 -5.8475
 2485SOL     OW 8046   5.837   3.517   1.823  0.2206  0.3423  0.0962
 2485SOL    HW1 8047   5.895   3.592   1.824 -0.2297  0.9107 -3.4386
 2485SOL    HW2 8048   5.886   3.449   1.777 -0.8760 -0.1191 -0.4204
 2486SOL     OW 8049   6.201   1.354   2.966  0.7235 -0.6713 -0.0934
 2486SOL    HW1 8050   6.157   1.337   3.049 -0.8161 -0.8907 -0.9124
 2486SOL    HW2 8051   6.168   1.439   2.939  0.3324 -1.0926 -0.9941
 2487SOL     OW 8052   1.024   1.466   2.776 -0.2527 -0.0214  0.9988
 2487SOL    HW1 8053   1.084   1.486   2.848 -1.2532  0.4905  1.7185
 2487SOL    HW2 8054   1.051   1.525   2.706  0.9800 -0.7901  0.7920
 2488SOL     OW 8055   2.462   3.635   0.251 -0.1774 -0.2242  0.1199
 2488SOL    HW1 8056   2.386   3.622   0.307 -0.5330 -2.1334 -0.7331
 2488SOL    HW2 8057   2.536   3.637   0.312 -0.8305  1.2320  0.9185
 2489SOL     OW 8058   0.577   0.405   1.286 -0.2461 -0.0690 -0.3648
 2489SOL    HW1 8059   0.616   0.436   1.367 -0.2858  0.0674 -0.3961
 2489SOL    HW2 8060   0.483   0.397   1.306 -0.4771  1.2699 -0.7698
 2490SOL     OW 8061   6.625   4.463   2.218 -0.0360  0.0781 -0.0055
 2490SOL    HW1 8062   6.717   4.454   2.241  0.1908  0.8810 -0.5762
 2490SOL    HW2 8063   6.596   4.542   2.263 -0.4011 -0.0727  0.0289
 2491SOL     OW 8064   6.021   0.586   0.745 -0.2801  0.4345  0.1282
 2491SOL    HW1 8065   5.928   0.595   0.725 -0.0405  0.0733 -1.2852
 2491SOL    HW2 8066   6.064   0.638   0.677  0.5144  2.2096  1.8878
 2492SOL     OW 8067   1.426   3.503   3.185  0.2125 -0.3975 -0.3876
 2492SOL    HW1 8068   1.426   3.430   3.122  1.4456 -0.1003 -0.7748
 2492SOL    HW2 8069   1.463   3.576   3.135 -3.2319  1.2387 -0.7683
 2493SOL     OW 8070   3.632   1.037   0.837 -0.5251 -0.2304 -0.3623
 2493SOL    HW1 8071   3.669   1.095   0.904  1.0646 -1.0962 -0.4255
 2493SOL    HW2 8072   3.687   0.958   0.841 -2.1374 -1.4313 -0.7965
 2494SOL     OW 8073   3.783   3.577   3.042  0.1018  0.7195 -0.6218
 2494SOL    HW1 8074   3.740   3.493   3.024 -0.1973  0.0900  2.3968
 2494SOL    HW2 8075   3.711   3.638   3.059  0.3187  1.6412 -2.7022
 2495SOL     OW 8076   2.197   0.165   1.885  0.2721  0.0930  0.3836
 2495SOL    HW1 8077   2.127   0.110   1.851  0.8674 -0.5190  0.1173
 2495SOL    HW2 8078   2.154   0.225   1.947 -0.2516 -1.2860  1.3911
 2496SOL     OW 8079   1.021   2.413   1.273 -0.1321  0.4662 -0.2965
 2496SOL    HW1 8080   1.050   2.445   1.187  1.0142  0.4595  0.0619
 2496SOL    HW2 8081   1.037   2.319   1.270 -0.6532  0.3734 -0.2780
 2497SOL     OW 8082   3.633   2.447   1.380  0.3138  0.4016  0.0299
 2497SOL    HW1 8083   3.575   2.520   1.402 -0.1950 -0.7075  2.6397
 2497SOL    HW2 8084   3.708   2.489   1.337 -1.7536  1.9833 -2.3266
 2498SOL     OW 8085   4.349   1.811   0.764 -0.0891 -0.3685  0.0215
 2498SOL    HW1 8086   4.414   1.880   0.750  1.1571 -1.7092 -1.2001
 2498SOL    HW2 8087   4.294   1.812   0.686  1.2441 -2.0465 -1.0105
 2499SOL     OW 8088   6.605   1.438   1.008 -0.0066 -0.7479 -0.2931
 2499SOL    HW1 8089   6.560   1.491   0.942  0.9122 -0.0545 -0.3885
 2499SOL    HW2 8090   6.550   1.361   1.019 -0.7838 -0.3065 -0.9990
 2500SOL     OW 8091   6.488   3.207   2.796 -0.2474  0.5665 -0.0246
 2500SOL    HW1 8092   6.392   3.201   2.801 -0.5286  0.6104 -3.0480
 2500SOL    HW2 8093   6.509   3.291   2.835 -1.5084  0.7695  0.2602
 2501SOL     OW 8094   0.105   4.549   2.420 -0.2110  0.3130  0.7223
 2501SOL    HW1 8095   0.150   4.492   2.482 -1.3620 -0.6017  0.7540
 2501SOL    HW2 8096   0.060   4.488   2.360 -0.2274  1.1804 -0.1744
 2502SOL     OW 8097   3.760   1.454   2.476  0.0217  0.4326  0.3206
 2502SOL    HW1 8098   3.693   1.420   2.416  0.1834 -0.9172  0.8500
 2502SOL    HW2 8099   3.730   1.542   2.499 -2.8318 -0.8574  2.2708
 2503SOL     OW 8100   3.512   1.125   2.564 -0.1671  0.5206  0.4722
 2503SOL    HW1 8101   3.456   1.196   2.597  0.6843  0.1622  2.9265
 2503SOL    HW2 8102   3.479   1.047   2.609  0.0742 -0.3399 -0.8042
 2504SOL     OW 8103   2.835   3.678   3.014  0.3324 -0.4850  0.3653
 2504SOL    HW1 8104   2.866   3.768   3.006 -0.8135 -0.1472 -0.5931
 2504SOL    HW2 8105   2.878   3.644   3.093  0.8589  0.8657  0.6758
 2505SOL     OW 8106   4.612   4.054   0.869  0.6808 -0.5313 -0.3521
 2505SOL    HW1 8107   4.563   3.972   0.864  1.3550 -1.0378  0.8625
 2505SOL    HW2 8108   4.552   4.120   0.834 -0.1020 -1.4419 -0.7726
 2506SOL     OW 8109   5.632   2.332   2.014  0.5700 -0.6738 -0.2626
 2506SOL    HW1 8110   5.697   2.264   1.996  0.7847 -0.6045  0.2395
 2506SOL    HW2 8111   5.624   2.380   1.931 -0.1650 -1.7955 -0.8760
 2507SOL     OW 8112   3.915   4.149   2.411 -0.3845 -0.3695 -0.3961
 2507SOL    HW1 8113   3.980   4.114   2.472 -0.1284  1.8784  0.7485
 2507SOL    HW2 8114   3.835   4.101   2.431  0.5385 -2.1303 -0.7872
 2508SOL     OW 8115   6.646   2.548   2.047  0.4972  0.2523  0.3695
 2508SOL    HW1 8116   6.611   2.479   2.104 -0.0024 -0.1877 -0.4475
 2508SOL    HW2 8117   6.581   2.619   2.053  1.0811  0.7296  1.3185
 2509SOL     OW 8118   1.536   0.625   1.154 -0.1286  0.6093  0.1536
 2509SOL    HW1 8119   1.552   0.542   1.109 -0.7752  0.2463  0.5688
 2509SOL    HW2 8120   1.581   0.691   1.101  2.9569 -0.3319  1.3441
 2510SOL     OW 8121   7.159   2.848   1.444  0.4855  0.4394  0.4653
 2510SOL    HW1 8122   7.126   2.911   1.380 -0.4492  0.8140  1.2773
 2510SOL    HW2 8123   7.232   2.893   1.486  1.1609  0.1540 -0.3876
 2511SOL     OW 8124   5.688   0.520   1.849 -0.3036 -0.1801  0.1798
 2511SOL    HW1 8125   5.646   0.513   1.763  0.4927  3.1127 -0.6236
 2511SOL    HW2 8126   5.627   0.574   1.900 -0.7633 -2.0868  1.7803
 2512SOL     OW 8127   5.934   2.348   0.747 -0.3531 -0.4380  0.1756
 2512SOL    HW1 8128   5.988   2.286   0.796  0.7237 -0.7914 -1.3592
 2512SOL    HW2 8129   5.982   2.430   0.751  0.9991 -1.0169 -2.1243
 2513SOL     OW 8130   4.422   2.212   2.435  0.0229  0.7061 -0.2079
 2513SOL    HW1 8131   4.462   2.126   2.449  0.2660  0.5452 -1.6837
 2513SOL    HW2 8132   4.358   2.220   2.505 -1.1362 -1.3901 -0.9323
 2514SOL     OW 8133   5.617   3.317   1.684  0.3760 -0.4906 -0.5627
 2514SOL    HW1 8134   5.544   3.351   1.737  1.0982 -0.0784  0.1998
 2514SOL    HW2 8135   5.667   3.395   1.659  1.0992 -0.8426 -0.2493
 2515SOL     OW 8136   0.882   4.543   1.486 -0.2746  0.3581 -0.2136
 2515SOL    HW1 8137   0.949   4.478   1.509  0.3917  0.6291 -1.3237
 2515SOL    HW2 8138   0.929   4.626   1.486 -0.0219  0.3171 -3.1733
 2516SOL     OW 8139   4.012   3.840   0.969 -0.5432  0.3667  0.0454
 2516SOL    HW1 8140   3.996   3.928   0.936 -0.9650 -0.1518 -1.1914
 2516SOL    HW2 8141   3.948   3.830   1.040 -1.2231  0.6871 -0.5025
 2517SOL     OW 8142   6.496   1.319   2.627 -0.4356 -0.2564  0.0568
 2517SOL    HW1 8143   6.489   1.292   2.719  0.3133  0.0793  0.2263
 2517SOL    HW2 8144   6.414   1.364   2.608  0.0330  1.0985  1.0620
 2518SOL     OW 8145   3.572   0.505   0.312  0.5289 -0.4419  0.5754
 2518SOL    HW1 8146   3.525   0.472   0.236 -0.9268  1.3272  0.6313
 2518SOL    HW2 8147   3.566   0.435   0.377  0.8579 -1.5397 -0.5493
 2519SOL     OW 8148   0.987   3.663   0.015 -0.1638 -0.1647  0.5336
 2519SOL    HW1 8149   1.004   3.592   0.076 -0.2548 -0.3296  0.3698
 2519SOL    HW2 8150   0.891   3.668   0.011 -0.1608 -0.3229  0.2137
 2520SOL     OW 8151   2.834   1.879   3.412  0.5266  0.5461 -0.3604
 2520SOL    HW1 8152   2.847   1.810   3.346 -0.5464 -1.2074  1.1683
 2520SOL    HW2 8153   2.743   1.871   3.437  1.1801  0.3164  2.2059
 2521SOL     OW 8154   0.865   3.126   2.085 -0.5344 -0.3497 -0.1681
 2521SOL    HW1 8155   0.819   3.172   2.155  0.9746 -0.9109  1.2482
 2521SOL    HW2 8156   0.901   3.195   2.030  0.0678  0.1551  0.8342
 2522SOL     OW 8157   5.602   1.307   0.387 -0.3715  0.0486  0.0944
 2522SOL    HW1 8158   5.561   1.221   0.397  0.5845 -0.4609 -0.2263
 2522SOL    HW2 8159   5.694   1.292   0.409 -0.0034  0.7895 -0.8901
 2523SOL     OW 8160   4.751   3.405   0.745  0.0415 -0.2857  0.0539
 2523SOL    HW1 8161   4.764   3.332   0.806 -1.2923  0.9751  1.9568
 2523SOL    HW2 8162   4.818   3.469   0.771 -0.6040  0.3010  0.2987
 2524SOL     OW 8163   2.732   0.834   2.504 -0.8008  0.4368 -0.0406
 2524SOL    HW1 8164   2.811   0.792   2.468 -0.2146  2.5416 -1.4316
 2524SOL    HW2 8165   2.659   0.788   2.462 -0.2963 -0.7744  0.3682
 2525SOL     OW 8166   2.328   0.550   0.701 -0.3617  0.2543 -0.0146
 2525SOL    HW1 8167   2.342   0.639   0.734 -2.2576  0.6164 -0.0516
 2525SOL    HW2 8168   2.311   0.561   0.608  2.5829 -0.5323 -0.7428
 2526SOL     OW 8169   5.944   1.207   0.158 -0.5348 -0.1618  0.0955
 2526SOL    HW1 8170   5.872   1.151   0.129 -0.3585 -1.3984  1.8412
 2526SOL    HW2 8171   6.022   1.169   0.118 -0.7349  0.6668 -1.1147
 2527SOL     OW 8172   7.208   3.841   0.323 -0.4945 -0.1622 -0.0595
 2527SOL    HW1 8173   7.274   3.820   0.257  0.7407 -0.1102  1.1232
 2527SOL    HW2 8174   7.240   3.922   0.363 -2.2554  0.9057 -0.7226
 2528SOL     OW 8175   2.869   2.348   3.000 -0.3145  0.2616  0.0355
 2528SOL    HW1 8176   2.950   2.327   2.955 -0.9595 -1.1846 -0.4885
 2528SOL    HW2 8177   2.853   2.274   3.058 -2.2571 -0.4440 -1.2957
 2529SOL     OW 8178   0.665   2.665   1.720  0.3657 -0.2966  0.1073
 2529SOL    HW1 8179   0.627   2.577   1.721  0.2349 -0.2569 -0.8484
 2529SOL    HW2 8180   0.755   2.653   1.748  0.2511 -0.6910  0.3086
 2530SOL     OW 8181   2.146   5.207   3.183 -0.1680 -0.7809  0.2698
 2530SOL    HW1 8182   2.102   5.207   3.098 -0.8820 -1.0005  0.6378
 2530SOL    HW2 8183   2.076   5.206   3.247  0.3338  0.7708  0.9018
 2531SOL     OW 8184   3.613   2.855   0.035 -0.2882  0.6199  0.0133
 2531SOL    HW1 8185   3.520   2.848   0.014 -0.0524 -0.6859 -0.7125
 2531SOL    HW2 8186   3.652   2.900  -0.040 -0.3593  1.4237  0.4446
 2532SOL     OW 8187   4.896   5.290   0.883 -0.0918  0.0087 -0.4215
 2532SOL    HW1 8188   4.821   5.331   0.841 -0.7899 -0.4875  0.2940
 2532SOL    HW2 8189   4.861   5.255   0.965  0.8573 -0.4873 -0.2095
 2533SOL     OW 8190   4.197   1.792   2.559 -0.0192 -0.1387  0.3202
 2533SOL    HW1 8191   4.281   1.783   2.604 -0.3709  1.1040  1.2446
 2533SOL    HW2 8192   4.166   1.880   2.580 -1.3189 -0.3791 -0.4333
 2534SOL     OW 8193   4.991   1.804   2.540 -0.1464  0.1799 -0.8734
 2534SOL    HW1 8194   5.004   1.784   2.632  0.1514 -1.1076 -1.1821
 2534SOL    HW2 8195   4.955   1.893   2.540  2.2868  1.2745  0.3569
 2535SOL     OW 8196   1.726   0.785   1.012  0.2237  0.1194 -0.2752
 2535SOL    HW1 8197   1.706   0.865   0.964  2.7532  0.7831 -0.3370
 2535SOL    HW2 8198   1.734   0.718   0.945 -0.0809  0.1952 -0.3909
 2536SOL     OW 8199   3.719   2.297   0.446 -0.1501 -0.9557  0.7391
 2536SOL    HW1 8200   3.650   2.335   0.501 -0.6810  1.2435 -1.3105
 2536SOL    HW2 8201   3.800   2.310   0.496 -0.4897  1.7812  0.7110
 2537SOL     OW 8202   0.793   3.421   2.506  0.1450 -0.6250 -0.2257
 2537SOL    HW1 8203   0.723   3.360   2.485 -0.3027 -0.7585  1.4871
 2537SOL    HW2 8204   0.749   3.503   2.529  0.3394 -1.1501  2.4129
 2538SOL     OW 8205   2.475   2.556   0.714 -0.1396 -0.4094  0.9844
 2538SOL    HW1 8206   2.461   2.496   0.641 -2.3721 -0.2000  1.1567
 2538SOL    HW2 8207   2.550   2.520   0.761  2.0662  0.0280 -1.9224
 2539SOL     OW 8208   1.458   2.985   0.432  0.2673 -0.7659 -0.8254
 2539SOL    HW1 8209   1.471   2.890   0.426 -0.1153 -0.8051 -1.1122
 2539SOL    HW2 8210   1.406   2.997   0.511 -3.1110 -1.1916 -2.8197
 2540SOL     OW 8211   5.869   1.093   2.482  0.0940  0.1690 -0.5834
 2540SOL    HW1 8212   5.961   1.084   2.509 -0.1093  0.4974  0.2607
 2540SOL    HW2 8213   5.856   1.022   2.418  0.7208 -0.3775 -0.1278
 2541SOL     OW 8214   3.289   4.993   3.207  0.1358  0.2975 -0.4344
 2541SOL    HW1 8215   3.321   5.036   3.127  1.9885 -0.0084  0.0856
 2541SOL    HW2 8216   3.355   5.014   3.273 -1.3392  0.4937  1.0264
 2542SOL     OW 8217   1.503   0.354   1.544  0.2941  0.5368  0.2123
 2542SOL    HW1 8218   1.454   0.279   1.578 -0.5342  0.2732 -1.4673
 2542SOL    HW2 8219   1.593   0.338   1.572 -0.0339 -0.6398  0.6397
 2543SOL     OW 8220   0.202   4.463   0.401 -0.7002  0.1716  0.4901
 2543SOL    HW1 8221   0.260   4.477   0.326  0.5544 -0.0103  1.3799
 2543SOL    HW2 8222   0.121   4.431   0.363  0.4885 -1.6508 -0.6900
 2544SOL     OW 8223   0.771   4.828   0.402 -0.2276 -0.2147 -0.0157
 2544SOL    HW1 8224   0.696   4.828   0.462  0.5088 -0.1280  0.9334
 2544SOL    HW2 8225   0.759   4.750   0.348 -0.9256 -0.2738  0.2121
 2545SOL     OW 8226   4.079   2.052   2.401  0.3763 -0.2145 -0.6923
 2545SOL    HW1 8227   4.147   2.010   2.348  0.6717 -1.3891  0.5707
 2545SOL    HW2 8228   4.125   2.123   2.446  0.2014  0.5597 -1.6997
 2546SOL     OW 8229   5.216   2.153   2.656 -0.2970  0.4556 -0.3135
 2546SOL    HW1 8230   5.187   2.146   2.747  0.4184  0.3636 -0.0863
 2546SOL    HW2 8231   5.256   2.068   2.638  0.6540  0.8942 -0.3213
 2547SOL     OW 8232   2.073   3.606   3.443  0.2228  0.0405 -0.6608
 2547SOL    HW1 8233   2.069   3.537   3.510 -0.5578  0.3370 -0.3897
 2547SOL    HW2 8234   2.166   3.631   3.441  0.8871 -2.2384 -2.0436
 2548SOL     OW 8235   5.038   1.469   2.231  0.2581  0.0374  0.2175
 2548SOL    HW1 8236   4.951   1.509   2.237 -0.0204 -0.5577  0.1948
 2548SOL    HW2 8237   5.098   1.544   2.225 -0.2865  0.4490 -0.2532
 2549SOL     OW 8238   5.564   1.491   1.658  0.0707 -0.1906 -0.9789
 2549SOL    HW1 8239   5.482   1.540   1.655  0.3823  0.6177  1.2616
 2549SOL    HW2 8240   5.598   1.495   1.569 -1.6636  0.6215 -1.6438
 2550SOL     OW 8241   1.765   3.862   2.463 -0.1879 -0.4890 -0.7449
 2550SOL    HW1 8242   1.741   3.772   2.486  0.1304 -0.6533 -1.0493
 2550SOL    HW2 8243   1.701   3.916   2.508 -1.2053 -0.9215 -1.6239
 2551SOL     OW 8244   1.884   4.759   2.206  0.4563  0.1534  0.0184
 2551SOL    HW1 8245   1.799   4.780   2.167  0.0934  2.3804  1.7763
 2551SOL    HW2 8246   1.915   4.842   2.241  3.4909 -0.5514 -0.7082
 2552SOL     OW 8247   6.607   2.932   1.137 -0.6052  0.1486  0.5814
 2552SOL    HW1 8248   6.667   2.986   1.189 -0.2483 -1.3875  1.8107
 2552SOL    HW2 8249   6.547   2.894   1.200  0.1041 -2.1107 -0.0217
 2553SOL     OW 8250   6.527   4.905   0.846 -0.8944  0.3502 -0.7296
 2553SOL    HW1 8251   6.432   4.899   0.853 -0.9787  0.8569 -1.4438
 2553SOL    HW2 8252   6.547   4.873   0.758 -0.4648  0.8770 -0.8276
 2554SOL     OW 8253   4.495   0.490   1.642  0.8897  0.2102 -0.1834
 2554SOL    HW1 8254   4.433   0.534   1.699  1.4242  1.6490 -0.6673
 2554SOL    HW2 8255   4.566   0.554   1.629  1.0433 -0.2703 -1.9902
 2555SOL     OW 8256   0.563   3.867   0.901  0.0924  0.2107  0.6127
 2555SOL    HW1 8257   0.548   3.873   0.995 -1.6014 -0.2835  0.3905
 2555SOL    HW2 8258   0.655   3.839   0.894 -0.2107 -1.3760  2.1563
 2556SOL     OW 8259   6.057   1.729   0.401  0.0757 -0.8362 -0.1942
 2556SOL    HW1 8260   6.094   1.707   0.487 -0.7967 -1.4889  0.0361
 2556SOL    HW2 8261   6.125   1.705   0.339  1.5875  1.6205  0.3866
 2557SOL     OW 8262   3.461   3.752   0.080 -0.1771  0.2830  0.1715
 2557SOL    HW1 8263   3.465   3.846   0.098  0.6470  0.3070 -0.0846
 2557SOL    HW2 8264   3.486   3.744  -0.012  0.2815 -0.2251  0.3385
 2558SOL     OW 8265   6.215   1.486   0.357  0.4438 -0.3182 -0.4156
 2558SOL    HW1 8266   6.299   1.532   0.362  0.0192  0.4283 -0.0290
 2558SOL    HW2 8267   6.177   1.497   0.444  0.3228 -1.4025 -0.3152
 2559SOL     OW 8268   0.865   2.926   0.245 -0.1182 -0.2064  0.2489
 2559SOL    HW1 8269   0.959   2.918   0.261 -0.4158 -1.7443  1.5662
 2559SOL    HW2 8270   0.851   2.880   0.162  0.2730 -0.0409  0.0881
 2560SOL     OW 8271   2.474   1.747   0.365  0.4366  0.1469 -0.2257
 2560SOL    HW1 8272   2.451   1.662   0.404  0.1726 -0.4165 -1.5684
 2560SOL    HW2 8273   2.402   1.766   0.305  0.6610  1.1765 -0.1841
 2561SOL     OW 8274   5.930   0.290   0.575 -0.0617 -0.2355 -0.1081
 2561SOL    HW1 8275   5.932   0.194   0.575 -0.4953 -0.2530  0.2990
 2561SOL    HW2 8276   5.925   0.313   0.668 -1.5226  0.1283 -0.2591
 2562SOL     OW 8277   5.677   4.074   0.195  0.1776  0.0518 -0.2434
 2562SOL    HW1 8278   5.651   4.049   0.284  0.2608 -0.7011 -0.4283
 2562SOL    HW2 8279   5.638   4.161   0.183  0.6363  0.4161  0.7292
 2563SOL     OW 8280   3.419   1.541   3.411  0.1840  0.3449 -0.6150
 2563SOL    HW1 8281   3.362   1.464   3.414  1.8856 -0.9527  0.8139
 2563SOL    HW2 8282   3.372   1.607   3.462 -0.3057 -0.5090  0.0856
 2564SOL     OW 8283   6.909   3.961   1.232  0.4553  0.3649 -0.5447
 2564SOL    HW1 8284   6.940   3.962   1.141  2.9480 -0.1688  0.2288
 2564SOL    HW2 8285   6.883   3.871   1.248 -0.4594  0.5640 -0.8456
 2565SOL     OW 8286   0.483   1.062   0.751  0.2459  0.3425 -0.0066
 2565SOL    HW1 8287   0.516   0.974   0.772 -0.1872  0.1055 -0.2970
 2565SOL    HW2 8288   0.558   1.120   0.764  0.3132  0.0464  1.0275
 2566SOL     OW 8289   5.870   0.415   3.035  0.0023 -0.0519 -0.1936
 2566SOL    HW1 8290   5.776   0.409   3.053  0.5314 -1.2648  2.5563
 2566SOL    HW2 8291   5.895   0.329   3.003  0.1207  0.4710 -1.6154
 2567SOL     OW 8292   0.048   3.112   2.783  0.2094 -0.1682  0.2362
 2567SOL    HW1 8293   0.137   3.087   2.808  0.1395 -0.4071  0.2437
 2567SOL    HW2 8294   0.018   3.167   2.856 -0.2211 -1.3748  0.9888
 2568SOL     OW 8295   3.988   5.188   0.888 -0.1576 -0.0682  0.7441
 2568SOL    HW1 8296   3.909   5.188   0.941 -0.7919  2.1701 -0.0935
 2568SOL    HW2 8297   4.050   5.242   0.938  0.0929  0.0107  0.3503
 2569SOL     OW 8298   1.715   4.203   1.648 -0.6110 -0.4306  0.1117
 2569SOL    HW1 8299   1.658   4.237   1.578 -0.6355  0.6149  0.6279
 2569SOL    HW2 8300   1.664   4.216   1.728  0.5860  1.1459  0.6651
 2570SOL     OW 8301   6.694   3.885   3.467 -0.4601  0.1583  0.6124
 2570SOL    HW1 8302   6.704   3.800   3.424 -0.2013  0.0464  0.8889
 2570SOL    HW2 8303   6.605   3.883   3.502  0.0498 -0.6280  1.9426
 2571SOL     OW 8304   3.499   0.317   0.122  0.4665  0.1677  0.2399
 2571SOL    HW1 8305   3.423   0.291   0.174  0.7220  0.9034  1.0015
 2571SOL    HW2 8306   3.463   0.337   0.035  0.3726 -3.7794 -0.8468
 2572SOL     OW 8307   2.720   3.467   1.214  0.2380  0.0809  0.0930
 2572SOL    HW1 8308   2.772   3.539   1.178 -0.0098 -0.4686 -1.4019
 2572SOL    HW2 8309   2.757   3.388   1.176  0.5412 -0.6351  1.7626
 2573SOL     OW 8310   2.991   3.042   3.109  0.1252 -0.1517  0.0793
 2573SOL    HW1 8311   3.036   3.125   3.090 -0.5541  0.4791  1.1018
 2573SOL    HW2 8312   2.994   2.994   3.026 -0.0796  1.1948 -0.7457
 2574SOL     OW 8313   5.524   2.885   1.493  0.5687 -0.1306  0.0344
 2574SOL    HW1 8314   5.490   2.962   1.538 -1.2249  0.7098 -2.5089
 2574SOL    HW2 8315   5.599   2.857   1.546  0.6917  2.7437  1.5918
 2575SOL     OW 8316   1.376   2.960   1.514 -0.1043 -0.8342 -0.4144
 2575SOL    HW1 8317   1.440   2.936   1.581  0.6791  0.2160 -0.7638
 2575SOL    HW2 8318   1.401   2.907   1.438 -0.0775 -0.9294 -0.3400
 2576SOL     OW 8319   3.089   4.097   1.209 -0.0205  0.0937  0.4684
 2576SOL    HW1 8320   2.998   4.108   1.182  0.1788  0.0926 -0.2065
 2576SOL    HW2 8321   3.092   4.009   1.247 -0.4057  0.2825  0.9441
 2577SOL     OW 8322   5.652   2.508   0.576 -0.2475 -0.1854  0.5026
 2577SOL    HW1 8323   5.657   2.505   0.671 -1.6010  0.4253  0.6217
 2577SOL    HW2 8324   5.653   2.416   0.548  1.8339 -0.3414  0.9629
 2578SOL     OW 8325   2.412   5.193   3.242 -0.1183 -0.7628 -0.2556
 2578SOL    HW1 8326   2.325   5.231   3.253 -0.2400 -0.5807 -1.7134
 2578SOL    HW2 8327   2.405   5.105   3.279  0.1387  0.4595  3.0944
 2579SOL     OW 8328   3.058   5.232   0.486 -0.1562 -0.0156 -0.6067
 2579SOL    HW1 8329   3.148   5.250   0.457  0.1799 -0.4711  0.1179
 2579SOL    HW2 8330   3.069   5.192   0.573 -0.9070 -2.6778 -1.6413
 2580SOL     OW 8331   2.532   1.296   3.228  0.0734  0.2810 -0.0175
 2580SOL    HW1 8332   2.446   1.319   3.261  0.2938 -0.2316  0.9418
 2580SOL    HW2 8333   2.551   1.362   3.161 -0.3995  1.3058  0.8435
 2581SOL     OW 8334   6.025   3.496   0.119  0.5327  0.0347 -0.4543
 2581SOL    HW1 8335   6.065   3.410   0.127 -0.4980 -0.3115  1.3234
 2581SOL    HW2 8336   6.079   3.553   0.174 -0.3813 -0.0760  0.5822
 2582SOL     OW 8337   6.943   4.403   1.879 -0.1997 -0.3475  0.4439
 2582SOL    HW1 8338   6.963   4.363   1.794 -1.0384 -0.1304  0.1367
 2582SOL    HW2 8339   6.862   4.452   1.864  0.1226  0.4221  1.1422
 2583SOL     OW 8340   1.722   4.570   3.036 -0.1787  0.0571 -0.5287
 2583SOL    HW1 8341   1.703   4.561   2.943 -2.4107  2.8451 -0.4756
 2583SOL    HW2 8342   1.659   4.513   3.080  0.0318 -0.2854 -0.6643
 2584SOL     OW 8343   5.967   1.335   0.810 -0.2263 -0.4376 -0.1605
 2584SOL    HW1 8344   5.903   1.334   0.880  0.5106 -0.3073  0.5283
 2584SOL    HW2 8345   5.917   1.315   0.731 -0.8034 -2.3020  0.6269
 2585SOL     OW 8346   5.572   4.828   2.052  0.3759  0.2093 -0.6979
 2585SOL    HW1 8347   5.642   4.764   2.036  0.9537  0.6809 -0.1219
 2585SOL    HW2 8348   5.610   4.911   2.024  0.4888  0.6587  0.7325
 2586SOL     OW 8349   1.783   3.470   3.191  0.3794  0.1627 -0.6489
 2586SOL    HW1 8350   1.772   3.512   3.106 -2.1247  0.2425 -0.3657
 2586SOL    HW2 8351   1.769   3.540   3.255 -0.1360 -0.3601 -0.1806
 2587SOL     OW 8352   5.858   1.564   2.835  0.2720  0.5049  0.4707
 2587SOL    HW1 8353   5.864   1.620   2.758  1.8595 -0.3344 -0.0423
 2587SOL    HW2 8354   5.864   1.475   2.802 -1.6022 -0.0047  1.3452
 2588SOL     OW 8355   1.418   2.170   1.281 -0.1229  0.6976  0.3080
 2588SOL    HW1 8356   1.353   2.116   1.235 -0.2417  0.8517  0.2934
 2588SOL    HW2 8357   1.496   2.114   1.287 -0.0744  0.7074 -0.1656
 2589SOL     OW 8358   1.812   3.000   0.166  0.3106  0.2623  0.3543
 2589SOL    HW1 8359   1.854   2.976   0.084 -1.6693 -2.0008 -0.1215
 2589SOL    HW2 8360   1.758   3.076   0.145  2.1678  1.6538  0.3951
 2590SOL     OW 8361   1.744   3.975   1.792 -0.2516 -0.6358  0.1098
 2590SOL    HW1 8362   1.713   4.024   1.716  2.0498  1.0793  0.1615
 2590SOL    HW2 8363   1.727   3.883   1.770 -2.2474 -0.0146 -1.1806
 2591SOL     OW 8364   0.258   1.161   3.143  0.1486 -0.0007  0.2241
 2591SOL    HW1 8365   0.189   1.204   3.093 -0.1645  0.0924  0.7359
 2591SOL    HW2 8366   0.313   1.232   3.174  1.1595 -0.1268 -1.1430
 2592SOL     OW 8367   5.801   0.834   3.259  0.6120 -0.3987 -0.1147
 2592SOL    HW1 8368   5.746   0.766   3.299  0.1427 -0.6188 -1.1153
 2592SOL    HW2 8369   5.747   0.872   3.190  1.5448 -0.2948 -0.8064
 2593SOL     OW 8370   1.147   0.525   2.498  0.0738 -1.0472 -0.0193
 2593SOL    HW1 8371   1.162   0.571   2.581  1.9570 -1.9590  0.1949
 2593SOL    HW2 8372   1.052   0.516   2.493 -0.2606  1.2934  0.7649
 2594SOL     OW 8373   0.718   4.595   0.294  0.7779  0.3892 -0.5481
 2594SOL    HW1 8374   0.680   4.567   0.211  0.1335 -3.5722  0.8634
 2594SOL    HW2 8375   0.667   4.549   0.361  2.2254  2.2076  2.0018
 2595SOL     OW 8376   1.730   2.094   0.999  0.3569 -0.6263 -0.0084
 2595SOL    HW1 8377   1.729   2.189   0.989  0.4330 -0.5988  0.2449
 2595SOL    HW2 8378   1.798   2.064   0.939  0.5400 -0.4960  0.1354
 2596SOL     OW 8379   5.105   1.530   1.746  0.7377 -0.2820 -0.0618
 2596SOL    HW1 8380   5.014   1.522   1.717  0.2286  2.6966  0.3371
 2596SOL    HW2 8381   5.156   1.527   1.665 -0.0332  0.8811 -0.6330
 2597SOL     OW 8382   3.436   4.163   2.967  0.1081  0.3432 -0.0176
 2597SOL    HW1 8383   3.405   4.235   3.021  0.5937  0.6832 -0.1937
 2597SOL    HW2 8384   3.465   4.096   3.029 -1.7297 -0.3401  0.1821
 2598SOL     OW 8385   4.394   0.677   3.085 -0.1286  0.1434 -0.1844
 2598SOL    HW1 8386   4.333   0.700   3.015 -1.4046  0.5684  1.0404
 2598SOL    HW2 8387   4.383   0.746   3.151  0.7471 -0.4651  0.6262
 2599SOL     OW 8388   1.549   2.606   2.000  0.6637  0.2405 -0.2171
 2599SOL    HW1 8389   1.491   2.564   1.936 -0.7394  4.2759 -1.8968
 2599SOL    HW2 8390   1.493   2.626   2.074  0.6001  1.4584 -0.5721
 2600SOL     OW 8391   5.778   3.356   1.030  0.0126 -0.0410  0.0754
 2600SOL    HW1 8392   5.711   3.392   0.972 -0.4419 -2.1208 -0.7478
 2600SOL    HW2 8393   5.796   3.269   0.996  2.7235  0.2136  0.6582
 2601SOL     OW 8394   6.764   3.546   2.391  0.1351 -0.2879  0.6902
 2601SOL    HW1 8395   6.752   3.529   2.484 -0.8002 -0.1091  0.6175
 2601SOL    HW2 8396   6.737   3.465   2.348  0.8331 -0.4677  0.5822
 2602SOL     OW 8397   4.715   1.054   0.295 -0.0757  0.8341  0.2179
 2602SOL    HW1 8398   4.739   1.050   0.387  1.1023  1.0129 -0.0611
 2602SOL    HW2 8399   4.689   0.964   0.273 -0.6635  0.8631  0.7959
 2603SOL     OW 8400   7.170   2.455   3.457 -1.3384  0.1277  0.3304
 2603SOL    HW1 8401   7.144   2.386   3.396 -0.2174  0.9340 -1.1176
 2603SOL    HW2 8402   7.175   2.411   3.542  3.2439 -2.7671 -1.0512
 2604SOL     OW 8403   4.388   1.362   2.522  0.1444 -0.2052 -0.0594
 2604SOL    HW1 8404   4.330   1.427   2.483 -0.0395  1.0739  2.1619
 2604SOL    HW2 8405   4.475   1.386   2.492  0.0708  1.0938  0.6993
 2605SOL     OW 8406   5.631   1.847   1.039  0.0442  0.3657  0.2422
 2605SOL    HW1 8407   5.575   1.877   0.967 -0.8893  1.0572  1.2114
 2605SOL    HW2 8408   5.688   1.922   1.058 -1.3911  1.1469  1.7946
 2606SOL     OW 8409   5.543   0.646   0.824 -0.0065  0.1382 -0.2601
 2606SOL    HW1 8410   5.458   0.669   0.787 -0.6697 -0.2944  0.9806
 2606SOL    HW2 8411   5.579   0.730   0.855 -0.4070  0.1696  0.1144
 2607SOL     OW 8412   0.965   4.733   3.453 -0.8299 -0.1195 -0.1919
 2607SOL    HW1 8413   0.903   4.680   3.502 -1.1820  1.2130  0.8732
 2607SOL    HW2 8414   1.049   4.689   3.464 -1.1110 -0.4598  0.6745
 2608SOL     OW 8415   2.371   3.457   1.316 -0.3921 -0.0922 -0.0499
 2608SOL    HW1 8416   2.364   3.456   1.221  1.2728  2.4404 -0.2808
 2608SOL    HW2 8417   2.323   3.535   1.344 -0.8020 -0.7529  1.2174
 2609SOL     OW 8418   3.528   2.457   3.183  0.4073  0.1457 -0.7148
 2609SOL    HW1 8419   3.497   2.544   3.158  2.7565  1.3225  0.1827
 2609SOL    HW2 8420   3.585   2.430   3.111 -0.6170 -0.8785 -1.1814
 2610SOL     OW 8421   6.272   2.096   1.406 -0.3220  0.5233 -0.0929
 2610SOL    HW1 8422   6.269   2.118   1.499  1.0039  0.0865  0.0720
 2610SOL    HW2 8423   6.313   2.010   1.403 -0.5467  0.4393 -1.0718
 2611SOL     OW 8424   2.645   4.220   1.780 -0.0135 -0.3671 -0.5421
 2611SOL    HW1 8425   2.726   4.271   1.786  0.4039 -1.1019  0.1326
 2611SOL    HW2 8426   2.578   4.285   1.760  0.8490  0.1554 -1.8846
 2612SOL     OW 8427   6.592   4.779   0.165 -0.0899 -0.0821 -0.2565
 2612SOL    HW1 8428   6.574   4.746   0.077 -0.2934 -2.8769  0.7206
 2612SOL    HW2 8429   6.512   4.824   0.191 -0.9136 -1.2368 -0.6955
 2613SOL     OW 8430   6.698   4.998   2.998  0.0896  0.1699 -0.2622
 2613SOL    HW1 8431   6.628   5.044   3.044  0.8922  1.7069 -0.5319
 2613SOL    HW2 8432   6.779   5.033   3.036  0.7619 -2.0631  0.5359
 2614SOL     OW 8433   6.411   3.174   3.145 -0.4596  0.3524  0.0179
 2614SOL    HW1 8434   6.367   3.205   3.224 -0.6187  2.0437 -0.6939
 2614SOL    HW2 8435   6.363   3.215   3.073 -1.6418 -2.7452 -1.1526
 2615SOL     OW 8436   3.383   0.901   0.823  0.0383 -0.8762  0.2575
 2615SOL    HW1 8437   3.354   0.863   0.906  0.3359 -2.3163 -0.2652
 2615SOL    HW2 8438   3.443   0.972   0.848  1.9517 -2.7444  1.3154
 2616SOL     OW 8439   1.915   1.249   2.202 -0.1937  0.4536 -0.0555
 2616SOL    HW1 8440   1.952   1.337   2.211 -0.8331  0.6831  0.3676
 2616SOL    HW2 8441   1.855   1.255   2.127 -1.3742  0.7785  0.8954
 2617SOL     OW 8442   2.894   0.144   1.749  0.4068 -0.0203 -0.0992
 2617SOL    HW1 8443   2.843   0.210   1.702 -0.9156 -1.4151 -0.7206
 2617SOL    HW2 8444   2.829   0.081   1.779  1.5223 -0.5363  1.3447
 2618SOL     OW 8445   5.297   4.810   0.230 -0.0180 -0.3039 -0.4367
 2618SOL    HW1 8446   5.280   4.853   0.314 -0.0335 -1.3548  0.1155
 2618SOL    HW2 8447   5.215   4.817   0.182 -0.6699 -1.4960  0.4642
 2619SOL     OW 8448   2.214   0.598   1.700  0.6106  0.2772 -0.3754
 2619SOL    HW1 8449   2.179   0.629   1.783 -0.5026  0.3205 -0.8345
 2619SOL    HW2 8450   2.138   0.560   1.655  0.6790  2.1978 -2.2848
 2620SOL     OW 8451   4.343   4.562   0.107  0.5495 -0.0251  0.9890
 2620SOL    HW1 8452   4.303   4.633   0.157  2.6043  0.3900  2.1561
 2620SOL    HW2 8453   4.367   4.496   0.172  0.5697 -0.8483  0.1751
 2621SOL     OW 8454   4.343   0.973   3.025 -0.5082  0.2499  0.1787
 2621SOL    HW1 8455   4.277   1.037   3.049 -1.1352  0.4503 -1.8840
 2621SOL    HW2 8456   4.294   0.893   3.005 -0.0301  0.0234 -0.1414
 2622SOL     OW 8457   6.352   2.304   0.423  0.0447 -0.0947 -0.0908
 2622SOL    HW1 8458   6.405   2.363   0.477 -1.1989 -0.4218  1.5967
 2622SOL    HW2 8459   6.364   2.218   0.462  1.5592 -0.9802 -2.3146
 2623SOL     OW 8460   5.037   1.215   0.784  0.7929  0.0974  0.8199
 2623SOL    HW1 8461   4.990   1.283   0.833  1.7199  1.6936 -0.4077
 2623SOL    HW2 8462   5.129   1.233   0.800  1.0597 -1.4753  1.2084
 2624SOL     OW 8463   2.287   2.073   0.341  0.7751 -0.5731 -0.4167
 2624SOL    HW1 8464   2.225   2.045   0.409  2.0730 -0.4573  0.8497
 2624SOL    HW2 8465   2.268   2.166   0.328  0.2701 -0.6842 -0.5107
 2625SOL     OW 8466   1.768   2.137   0.453 -0.2170 -0.0298  0.5128
 2625SOL    HW1 8467   1.829   2.185   0.397  0.3856 -1.3462 -0.0210
 2625SOL    HW2 8468   1.820   2.063   0.486 -0.9262  0.0295  1.8146
 2626SOL     OW 8469   2.044   1.669   0.050  0.1862  0.0082 -0.2606
 2626SOL    HW1 8470   2.053   1.633  -0.038  1.1818  1.5608 -0.8337
 2626SOL    HW2 8471   2.050   1.764   0.038 -2.7415  0.4939  1.1120
 2627SOL     OW 8472   4.267   3.023   0.648 -0.0092 -0.3506  0.2379
 2627SOL    HW1 8473   4.345   3.066   0.681 -0.2251 -0.4561  0.8908
 2627SOL    HW2 8474   4.278   3.023   0.553  0.2137  0.7143  0.2549
 2628SOL     OW 8475   3.441   2.655   2.684  0.2422  0.1158 -0.2090
 2628SOL    HW1 8476   3.460   2.572   2.728 -0.7544  0.3131  0.6328
 2628SOL    HW2 8477   3.525   2.682   2.648  0.2712 -2.1462 -2.0983
 2629SOL     OW 8478   4.087   1.182   3.459  0.5582  0.2726 -0.0196
 2629SOL    HW1 8479   4.054   1.236   3.387  1.2609  0.1835 -0.4248
 2629SOL    HW2 8480   4.015   1.178   3.521  0.3984  1.4693 -0.1008
 2630SOL     OW 8481   2.602   3.611   2.630 -0.0478 -0.1420 -0.2309
 2630SOL    HW1 8482   2.612   3.665   2.552 -0.3736 -3.1161 -2.5056
 2630SOL    HW2 8483   2.507   3.609   2.645 -0.0505 -0.2265 -0.2589
 2631SOL     OW 8484   5.600   1.633   0.345  0.2242  0.1950 -0.2015
 2631SOL    HW1 8485   5.598   1.583   0.263 -1.6096 -1.7004  0.9224
 2631SOL    HW2 8486   5.688   1.618   0.380  0.5922 -0.0222 -1.1861
 2632SOL     OW 8487   6.703   4.945   3.345 -0.3245  0.2392 -0.1612
 2632SOL    HW1 8488   6.623   4.962   3.296  0.4712  0.4031 -1.4394
 2632SOL    HW2 8489   6.716   5.023   3.398  1.2217  2.1222 -3.1022
 2633SOL     OW 8490   0.151   3.685   1.850 -0.8285 -0.1397  0.8594
 2633SOL    HW1 8491   0.139   3.634   1.930  0.2064  0.6702  1.5601
 2633SOL    HW2 8492   0.139   3.776   1.878  1.1564  0.2830  0.4706
 2634SOL     OW 8493   5.620   0.916   2.333  0.1161  0.1647 -0.3158
 2634SOL    HW1 8494   5.698   0.880   2.292  1.9945  1.0588  2.1994
 2634SOL    HW2 8495   5.625   0.888   2.424 -2.2944  0.6196  0.0257
 2635SOL     OW 8496   3.398   4.830   2.197  0.2692  0.7275  0.5635
 2635SOL    HW1 8497   3.400   4.734   2.200 -0.2736  0.7221  1.1070
 2635SOL    HW2 8498   3.317   4.853   2.243  0.4767  1.4526  0.5728
 2636SOL     OW 8499   3.350   3.678   1.129  0.0894  0.0902 -0.2274
 2636SOL    HW1 8500   3.383   3.762   1.162  0.3621  0.1863 -0.7263
 2636SOL    HW2 8501   3.373   3.679   1.036 -2.1796  0.5768 -0.8305
 2637SOL     OW 8502   0.469   0.021   3.125  0.3100  0.0139 -0.0527
 2637SOL    HW1 8503   0.516   0.091   3.080 -0.2147 -0.0023 -0.6305
 2637SOL    HW2 8504   0.454  -0.046   3.058 -0.0909 -0.2045  0.2454
 2638SOL     OW 8505   6.630   4.510   2.613 -0.3463  0.1332 -0.0110
 2638SOL    HW1 8506   6.622   4.560   2.694 -2.0278  0.6253 -0.4518
 2638SOL    HW2 8507   6.617   4.574   2.543 -1.0418 -0.6365 -0.6097
 2639SOL     OW 8508   6.307   4.084   0.878  0.2382  0.2995 -0.3408
 2639SOL    HW1 8509   6.370   4.153   0.899 -0.7717  0.8588  0.9539
 2639SOL    HW2 8510   6.313   4.075   0.783  0.9294  1.6437 -0.4460
 2640SOL     OW 8511   1.388   2.666   0.390  0.2940 -0.1371  0.0750
 2640SOL    HW1 8512   1.332   2.600   0.351 -2.3084  1.3674  1.0198
 2640SOL    HW2 8513   1.379   2.653   0.485  0.4057  1.0203  0.2641
 2641SOL     OW 8514   3.498   4.614   0.137  0.0391  0.1373 -0.2019
 2641SOL    HW1 8515   3.493   4.525   0.172 -1.7142  0.1675 -0.2512
 2641SOL    HW2 8516   3.514   4.602   0.043  0.0379 -0.1225 -0.1686
 2642SOL     OW 8517   6.808   1.430   0.777 -0.0753 -0.1935  0.3306
 2642SOL    HW1 8518   6.829   1.500   0.839 -1.7874  0.1446  0.5980
 2642SOL    HW2 8519   6.714   1.417   0.788 -0.1994 -0.9528 -1.3602
 2643SOL     OW 8520   3.391   1.823   3.281 -0.5900  0.4066 -0.1342
 2643SOL    HW1 8521   3.426   1.851   3.197  2.5126  0.3090  1.0151
 2643SOL    HW2 8522   3.296   1.831   3.271 -0.2338  2.9578 -2.7156
 2644SOL     OW 8523   0.030   4.717   2.609  0.3856 -0.3107 -0.4424
 2644SOL    HW1 8524   0.046   4.678   2.523  1.0213 -0.4560 -0.2579
 2644SOL    HW2 8525   0.092   4.675   2.668  0.4827  0.3391 -0.0627
 2645SOL     OW 8526   5.688   4.589   0.622  0.5583  0.6254 -0.6168
 2645SOL    HW1 8527   5.746   4.517   0.599  0.6863 -0.1725  1.8481
 2645SOL    HW2 8528   5.645   4.614   0.540  1.4268 -1.4231 -1.7540
 2646SOL     OW 8529   4.254   0.561   1.093  0.0470 -0.0596 -0.0535
 2646SOL    HW1 8530   4.247   0.569   1.189  1.8041 -1.2746  0.2282
 2646SOL    HW2 8531   4.271   0.468   1.079  1.7481  0.4229 -1.3941
 2647SOL     OW 8532   2.116   3.240   3.338 -0.5832 -0.6795 -0.5808
 2647SOL    HW1 8533   2.040   3.272   3.388 -0.1403  1.0550 -0.9648
 2647SOL    HW2 8534   2.136   3.311   3.276  1.3903 -1.0559 -0.4416
 2648SOL     OW 8535   6.951   3.380   2.021 -0.1659  0.6534  0.1727
 2648SOL    HW1 8536   6.954   3.314   1.953 -2.2124 -0.8619  1.4318
 2648SOL    HW2 8537   7.039   3.380   2.059  0.9960  1.4738 -2.2887
 2649SOL     OW 8538   7.281   3.735   3.124  0.4267  0.1363  0.4220
 2649SOL    HW1 8539   7.351   3.764   3.182  0.7156  0.6380 -0.1727
 2649SOL    HW2 8540   7.267   3.808   3.064 -0.0008 -0.3008 -0.0219
 2650SOL     OW 8541   5.462   3.222   1.146  0.2163  0.6585  0.1603
 2650SOL    HW1 8542   5.415   3.303   1.167  0.8878  0.6470  1.8728
 2650SOL    HW2 8543   5.516   3.245   1.071 -1.4044  1.0697 -0.9445
 2651SOL     OW 8544   6.782   4.156   0.518 -0.1116  0.2732 -0.0707
 2651SOL    HW1 8545   6.784   4.073   0.566  0.4831  0.2410 -0.1520
 2651SOL    HW2 8546   6.693   4.188   0.531  0.0995  0.3793  1.2506
 2652SOL     OW 8547   7.230   3.270   2.405  0.3485  0.1176  0.3745
 2652SOL    HW1 8548   7.157   3.272   2.343  0.1472 -0.9344  0.5550
 2652SOL    HW2 8549   7.299   3.222   2.359  1.2405  1.8032 -0.1048
 2653SOL     OW 8550   5.249   0.590   2.168 -0.1562 -0.5655  0.1833
 2653SOL    HW1 8551   5.176   0.648   2.146  1.2016  2.0187  2.0098
 2653SOL    HW2 8552   5.208   0.514   2.209 -1.9544 -0.7359 -1.7492
 2654SOL     OW 8553   5.319   4.943   2.626 -0.5938  0.4215 -0.0678
 2654SOL    HW1 8554   5.286   4.938   2.716 -1.3892 -1.7476 -0.4257
 2654SOL    HW2 8555   5.375   5.021   2.626 -0.9846  0.7856  2.1546
 2655SOL     OW 8556   3.167   3.247   1.745 -0.2662  0.4170  0.7317
 2655SOL    HW1 8557   3.101   3.317   1.742 -1.4827 -0.6852  0.8640
 2655SOL    HW2 8558   3.120   3.172   1.782  0.6669 -0.8166 -0.4874
 2656SOL     OW 8559   6.386   5.043   1.681  0.7038  0.1212  0.3263
 2656SOL    HW1 8560   6.347   4.958   1.700  0.3136 -0.3336 -2.1058
 2656SOL    HW2 8561   6.478   5.024   1.665  0.3652 -0.1659 -1.6034
 2657SOL     OW 8562   6.738   4.913   0.379  0.0972 -0.2219 -0.1214
 2657SOL    HW1 8563   6.817   4.869   0.409 -0.3299 -0.7644  0.2182
 2657SOL    HW2 8564   6.713   4.866   0.299  0.7486  0.6751 -0.8747
 2658SOL     OW 8565   4.841   5.249   2.422  0.5677 -0.2925 -0.5777
 2658SOL    HW1 8566   4.912   5.204   2.468  0.7905 -0.4551 -1.0687
 2658SOL    HW2 8567   4.831   5.332   2.469  0.4340 -0.6757  0.0818
 2659SOL     OW 8568   4.414   0.466   3.443 -0.1027  0.0155  0.4169
 2659SOL    HW1 8569   4.372   0.382   3.422 -1.5046  0.6149  0.7075
 2659SOL    HW2 8570   4.373   0.529   3.384  1.4449  0.4157 -0.2999
 2660SOL     OW 8571   2.861   4.494   1.023 -0.5951  0.0464  0.4886
 2660SOL    HW1 8572   2.886   4.418   0.972 -1.6614 -0.4437  0.6749
 2660SOL    HW2 8573   2.910   4.486   1.105 -0.6222 -0.3857  0.4617
 2661SOL     OW 8574   4.428   0.380   0.529 -0.1568  0.2315  0.1027
 2661SOL    HW1 8575   4.520   0.363   0.550 -0.6227 -0.1592  2.0665
 2661SOL    HW2 8576   4.428   0.403   0.436  1.8289 -0.4126 -0.1021
 2662SOL     OW 8577   6.579   4.651   2.401 -0.2121  0.4275 -0.1100
 2662SOL    HW1 8578   6.654   4.701   2.435 -0.9231  0.9415  0.7500
 2662SOL    HW2 8579   6.519   4.718   2.368  0.1293 -0.0237 -1.7509
 2663SOL     OW 8580   5.668   4.398   2.309 -0.1489 -0.0634 -0.3183
 2663SOL    HW1 8581   5.710   4.339   2.373 -0.6185  0.5704  0.5980
 2663SOL    HW2 8582   5.690   4.486   2.341 -0.3731  0.2599 -1.0539
 2664SOL     OW 8583   4.295   4.116   2.428  0.1891 -0.2046  0.3999
 2664SOL    HW1 8584   4.350   4.067   2.367  0.1070 -1.5968  1.3678
 2664SOL    HW2 8585   4.237   4.049   2.466 -0.1473  0.7108  1.5585
 2665SOL     OW 8586   1.555   4.298   1.393 -0.1485  0.1096 -0.1120
 2665SOL    HW1 8587   1.545   4.207   1.363 -1.7883  0.1720  0.1677
 2665SOL    HW2 8588   1.592   4.344   1.317 -1.1827 -0.3931 -0.9551
 2666SOL     OW 8589   1.680   3.237   0.881 -0.3607 -0.1016 -0.2132
 2666SOL    HW1 8590   1.726   3.282   0.951  0.8732  1.3019 -1.8250
 2666SOL    HW2 8591   1.734   3.161   0.861 -0.7316 -0.5212  0.3561
 2667SOL     OW 8592   4.791   1.989   3.253 -0.1307  0.3521  0.0774
 2667SOL    HW1 8593   4.735   1.928   3.300 -0.2065 -0.3609 -0.9075
 2667SOL    HW2 8594   4.879   1.970   3.284 -0.4057  1.6067  1.7762
 2668SOL     OW 8595   5.109   3.705   3.243 -0.7196  0.2044 -0.3984
 2668SOL    HW1 8596   5.165   3.628   3.233 -0.9877 -0.0562  0.0161
 2668SOL    HW2 8597   5.084   3.703   3.336 -1.5232  0.2283 -0.6055
 2669SOL     OW 8598   6.065   3.674   2.930  0.0914 -1.2969 -0.0768
 2669SOL    HW1 8599   5.971   3.659   2.939  0.1736 -1.2639  0.9969
 2669SOL    HW2 8600   6.105   3.588   2.939  0.1647 -1.3221 -0.6115
 2670SOL     OW 8601   3.599   2.661   1.005 -0.4687  0.2880 -0.0452
 2670SOL    HW1 8602   3.684   2.617   0.997 -1.1479 -0.7955 -1.7835
 2670SOL    HW2 8603   3.618   2.738   1.059  1.6202  0.0494 -0.3265
 2671SOL     OW 8604   5.906   2.594   1.646  0.6566 -0.4573 -0.4674
 2671SOL    HW1 8605   5.948   2.658   1.589  1.7976  0.6001  1.4604
 2671SOL    HW2 8606   5.978   2.548   1.689 -0.1618 -1.0644  0.3057
 2672SOL     OW 8607   1.143   3.889   2.069  1.0322  0.1550  0.0006
 2672SOL    HW1 8608   1.051   3.915   2.060  0.8078 -0.3288  0.8299
 2672SOL    HW2 8609   1.183   3.960   2.119  0.8992 -0.0464  0.4043
 2673SOL     OW 8610   6.251   0.640   0.181  0.9558 -0.5661  0.4312
 2673SOL    HW1 8611   6.193   0.715   0.195  1.7165  0.7464 -2.6167
 2673SOL    HW2 8612   6.191   0.564   0.178 -0.6504  0.6790 -2.1231
 2674SOL     OW 8613   6.674   2.652   2.764  0.6344 -0.1862 -0.3870
 2674SOL    HW1 8614   6.653   2.579   2.822 -2.0884  0.8329  0.0398
 2674SOL    HW2 8615   6.650   2.622   2.677  0.5665 -0.1708 -0.3731
 2675SOL     OW 8616   1.099   2.932   3.178  0.4764 -0.4275  0.1211
 2675SOL    HW1 8617   1.087   2.927   3.083  0.6154 -1.6998  0.1609
 2675SOL    HW2 8618   1.049   2.859   3.213  0.7918 -0.2388  1.0017
 2676SOL     OW 8619   6.051   3.714   1.748  0.1511 -0.0972  0.0984
 2676SOL    HW1 8620   6.002   3.787   1.788  1.1695 -0.3923  2.0346
 2676SOL    HW2 8621   6.104   3.679   1.820  0.5721 -2.0161 -1.0712
 2677SOL     OW 8622   3.786   2.622   2.914  0.4681 -0.3502 -0.4522
 2677SOL    HW1 8623   3.827   2.598   2.831 -0.3064 -1.5497 -0.5033
 2677SOL    HW2 8624   3.851   2.598   2.980  0.6742 -0.3379 -0.6467
 2678SOL     OW 8625   2.731   1.896   2.507 -0.2075  0.1000 -0.2263
 2678SOL    HW1 8626   2.693   1.839   2.441  1.2109 -1.1182 -0.0522
 2678SOL    HW2 8627   2.822   1.868   2.513 -0.1723  0.5092  1.8814
 2679SOL     OW 8628   2.837   2.807   1.008  0.1798  0.0937 -0.0280
 2679SOL    HW1 8629   2.772   2.765   1.064 -0.7695 -0.0088 -1.1582
 2679SOL    HW2 8630   2.921   2.769   1.034 -0.4723 -1.3496  0.0284
 2680SOL     OW 8631   1.650   3.532   1.866  0.3108 -0.2152 -0.1218
 2680SOL    HW1 8632   1.641   3.593   1.793  0.1215 -1.1180 -0.8862
 2680SOL    HW2 8633   1.604   3.573   1.939 -0.0800  0.3990 -0.7127
 2681SOL     OW 8634   0.565   1.713   1.448  0.1797  1.0584 -0.1359
 2681SOL    HW1 8635   0.498   1.707   1.380  0.1135 -2.4571  0.0575
 2681SOL    HW2 8636   0.647   1.719   1.400  0.3966 -4.1002 -0.9295
 2682SOL     OW 8637   4.481   1.650   1.490 -0.1886 -0.3518  0.5990
 2682SOL    HW1 8638   4.482   1.709   1.565 -0.7663  0.8333 -0.2953
 2682SOL    HW2 8639   4.557   1.677   1.438 -1.5609  0.9795 -0.8074
 2683SOL     OW 8640   0.052   2.301   1.487  0.3056  0.0164 -0.7658
 2683SOL    HW1 8641   0.094   2.323   1.570  0.0678 -0.7626 -0.4354
 2683SOL    HW2 8642  -0.004   2.378   1.468 -0.7901 -0.4082  0.5604
 2684SOL     OW 8643   0.783   2.487   2.538  0.0986  0.0527  0.3664
 2684SOL    HW1 8644   0.858   2.460   2.590  0.4473 -0.9275 -0.6008
 2684SOL    HW2 8645   0.707   2.469   2.593  0.5077  0.0722  0.9460
 2685SOL     OW 8646   4.516   3.591   3.250 -0.2528  0.2220 -0.1750
 2685SOL    HW1 8647   4.576   3.546   3.190 -0.0909  0.4362 -0.1744
 2685SOL    HW2 8648   4.565   3.667   3.280 -0.9193  1.0120 -1.0358
 2686SOL     OW 8649   4.440   3.880   3.087  0.1567 -0.6617 -0.4541
 2686SOL    HW1 8650   4.505   3.866   3.157 -1.2862 -1.2250  0.8331
 2686SOL    HW2 8651   4.423   3.793   3.052  0.0433 -0.5267 -0.7351
 2687SOL     OW 8652   1.489   5.160   2.192  0.4450  0.6285  0.1128
 2687SOL    HW1 8653   1.560   5.224   2.197  0.9602  0.0092  0.8527
 2687SOL    HW2 8654   1.444   5.168   2.276 -1.7139  2.5052 -1.0919
 2688SOL     OW 8655   1.879   3.294   0.038 -0.1122  0.8935 -0.3530
 2688SOL    HW1 8656   1.818   3.252  -0.022  0.5126 -0.4989 -0.0418
 2688SOL    HW2 8657   1.832   3.299   0.121  0.0914  0.0380 -0.1762
 2689SOL     OW 8658   2.468   1.397   0.252  0.0465  0.2113 -0.4179
 2689SOL    HW1 8659   2.495   1.430   0.166  0.6537 -0.5952 -0.5489
 2689SOL    HW2 8660   2.549   1.373   0.296 -0.3095 -0.0512  0.1084
 2690SOL     OW 8661   2.476   0.045   0.178 -0.2805 -0.3326  0.3177
 2690SOL    HW1 8662   2.412   0.090   0.122  1.3651 -0.7220 -2.0286
 2690SOL    HW2 8663   2.465  -0.048   0.158  2.2192 -0.3102 -1.6785
 2691SOL     OW 8664   5.489   1.072   0.482 -0.4336  0.2096  0.1649
 2691SOL    HW1 8665   5.466   1.047   0.571 -0.7844  0.9018  0.2771
 2691SOL    HW2 8666   5.537   0.997   0.447 -2.7297 -1.2883 -0.0301
 2692SOL     OW 8667   3.427   1.323   1.141 -1.0606 -0.7485  0.0091
 2692SOL    HW1 8668   3.431   1.417   1.126 -0.9308 -1.0057 -1.8420
 2692SOL    HW2 8669   3.352   1.311   1.200  1.1936  0.7876  3.5563
 2693SOL     OW 8670   4.598   2.593   2.406 -0.0773  0.1074 -0.1686
 2693SOL    HW1 8671   4.687   2.587   2.370  1.1750  1.9499  2.3160
 2693SOL    HW2 8672   4.571   2.683   2.388 -0.5380  0.2108  0.9470
 2694SOL     OW 8673   0.222   4.616   2.168  0.5488  0.0874 -0.2833
 2694SOL    HW1 8674   0.129   4.612   2.192  0.4162  1.7064 -0.4101
 2694SOL    HW2 8675   0.257   4.688   2.220  1.8272 -0.7201  0.0067
 2695SOL     OW 8676   6.518   1.639   1.203  1.0341 -0.5206 -0.5030
 2695SOL    HW1 8677   6.536   1.545   1.206  2.5227 -0.2641 -0.9421
 2695SOL    HW2 8678   6.537   1.670   1.292  1.7109 -0.4412 -0.6714
 2696SOL     OW 8679   0.766   1.668   0.499  0.2533  0.5415 -0.1366
 2696SOL    HW1 8680   0.828   1.666   0.572  0.1900  2.3305  0.0032
 2696SOL    HW2 8681   0.734   1.578   0.492  1.7912 -0.1105  0.7037
 2697SOL     OW 8682   4.870   1.939   2.940 -0.0584 -0.0801 -0.5785
 2697SOL    HW1 8683   4.833   2.012   2.891 -0.3094 -0.6668 -1.2792
 2697SOL    HW2 8684   4.851   1.960   3.031 -2.4724 -0.5043 -0.9070
 2698SOL     OW 8685   7.148   2.521   0.817  0.1833 -0.3294  0.2441
 2698SOL    HW1 8686   7.083   2.591   0.814 -0.4519 -0.9470 -1.1187
 2698SOL    HW2 8687   7.150   2.494   0.909 -0.3179  0.7626  0.5894
 2699SOL     OW 8688   4.465   1.930   2.514  0.5351 -0.6663  0.0256
 2699SOL    HW1 8689   4.456   1.834   2.510 -1.5241 -0.5308  0.1618
 2699SOL    HW2 8690   4.448   1.951   2.606 -1.2593 -0.0353 -0.4134
 2700SOL     OW 8691   5.004   3.251   2.947 -0.1978  0.5494 -0.1548
 2700SOL    HW1 8692   4.943   3.185   2.914  0.1235  0.9442 -1.5697
 2700SOL    HW2 8693   5.088   3.206   2.951  0.0113  0.8509 -1.0728
 2701SOL     OW 8694   6.838   4.704   3.356  0.7446  0.1675 -0.7474
 2701SOL    HW1 8695   6.770   4.637   3.347  0.9421 -0.0696 -0.4871
 2701SOL    HW2 8696   6.790   4.786   3.358  0.5535  0.1070 -1.9902
 2702SOL     OW 8697   7.025   1.376   1.938 -0.2165  0.0891 -0.3290
 2702SOL    HW1 8698   7.077   1.408   2.012  0.0764 -1.1691  0.0361
 2702SOL    HW2 8699   7.087   1.324   1.887 -0.8324 -0.4448 -0.5409
 2703SOL     OW 8700   2.475   4.414   2.153 -0.2539  0.1728  0.4096
 2703SOL    HW1 8701   2.392   4.412   2.107 -0.7538 -0.2933  1.2988
 2703SOL    HW2 8702   2.469   4.343   2.217  1.9947 -1.9147 -1.4901
 2704SOL     OW 8703   5.604   4.169   0.609  0.2973 -0.1524  0.5012
 2704SOL    HW1 8704   5.604   4.220   0.690 -0.7253  0.2009  0.2910
 2704SOL    HW2 8705   5.525   4.197   0.562  0.8008 -0.4408 -0.5626
 2705SOL     OW 8706   3.132   5.282   1.370  0.1882  0.1317 -0.2640
 2705SOL    HW1 8707   3.135   5.327   1.454 -0.1135 -1.5679  0.6909
 2705SOL    HW2 8708   3.220   5.293   1.334  0.6561 -0.0713  0.7822
 2706SOL     OW 8709   3.632   0.050   2.975 -0.3162 -0.4483 -0.3561
 2706SOL    HW1 8710   3.704   0.005   3.020  0.7236 -0.8196 -2.2746
 2706SOL    HW2 8711   3.650   0.143   2.988 -1.8336 -0.4607  2.6485
 2707SOL     OW 8712   7.306   4.848   3.478 -0.7562  0.6706 -0.2604
 2707SOL    HW1 8713   7.282   4.863   3.386 -0.8120 -0.6671 -0.4803
 2707SOL    HW2 8714   7.225   4.817   3.518 -0.1441 -1.1345 -0.3472
 2708SOL     OW 8715   1.751   1.800   1.748  0.3166  0.0969  0.1276
 2708SOL    HW1 8716   1.749   1.721   1.695  1.3984 -0.8117  1.3959
 2708SOL    HW2 8717   1.792   1.774   1.830 -0.9759  1.5494  1.3081
 2709SOL     OW 8718   1.752   2.237   1.624  0.4494 -0.7483 -0.7727
 2709SOL    HW1 8719   1.671   2.272   1.587  1.1500 -0.6504 -2.2588
 2709SOL    HW2 8720   1.804   2.315   1.646  0.6659 -0.8134 -1.0426
 2710SOL     OW 8721   1.915   4.684   1.944  0.2582 -0.1208 -0.3068
 2710SOL    HW1 8722   1.966   4.739   2.005 -1.2704  0.1032  0.8158
 2710SOL    HW2 8723   1.827   4.719   1.949  0.1966  0.3320 -3.2087
 2711SOL     OW 8724   2.300   3.775   3.242  0.0057 -0.8586 -0.9018
 2711SOL    HW1 8725   2.391   3.776   3.212  0.8538 -0.1006  1.4774
 2711SOL    HW2 8726   2.305   3.741   3.332 -2.0184 -0.4393 -0.5851
 2712SOL     OW 8727   4.927   0.202   0.265 -0.2031  0.0413 -0.1201
 2712SOL    HW1 8728   4.873   0.165   0.335  1.5552  0.8531  1.8063
 2712SOL    HW2 8729   4.984   0.130   0.239  0.3910  0.2045  0.6615
 2713SOL     OW 8730   3.943   4.457   2.496 -0.0087 -0.2640  0.0914
 2713SOL    HW1 8731   4.004   4.389   2.525  0.6463  0.5532  0.6871
 2713SOL    HW2 8732   3.987   4.539   2.519 -1.1625  0.3441  0.1648
 2714SOL     OW 8733   4.788   1.240   1.683  0.3770 -0.0595 -0.3367
 2714SOL    HW1 8734   4.695   1.226   1.666  0.6081 -3.0468  0.3616
 2714SOL    HW2 8735   4.809   1.180   1.754  2.9650  0.0691 -0.8847
 2715SOL     OW 8736   1.589   1.471   2.829  0.4356  0.4757  0.0011
 2715SOL    HW1 8737   1.505   1.458   2.786 -0.0069  2.1361  0.2984
 2715SOL    HW2 8738   1.568   1.495   2.919  1.2565  0.1807  0.2878
 2716SOL     OW 8739   6.414   4.308   1.421  1.1707 -0.5635 -0.2881
 2716SOL    HW1 8740   6.488   4.362   1.394  0.8653 -0.9822 -2.1390
 2716SOL    HW2 8741   6.451   4.244   1.481  2.0225  0.1361 -0.0502
 2717SOL     OW 8742   4.260   3.243   2.289  0.3388  0.1087 -0.0043
 2717SOL    HW1 8743   4.250   3.319   2.232 -0.1253  0.3241  0.3503
 2717SOL    HW2 8744   4.187   3.186   2.265  1.0314 -0.5067 -0.6842
 2718SOL     OW 8745   5.535   4.920   0.088 -0.1119  0.2805 -0.1463
 2718SOL    HW1 8746   5.467   4.889   0.147 -0.5776 -1.7539 -1.6374
 2718SOL    HW2 8747   5.486   4.962   0.017  0.3907  1.8038  0.3738
 2719SOL     OW 8748   1.205   2.872   1.012  0.0437 -0.1461 -0.1548
 2719SOL    HW1 8749   1.162   2.855   1.096  0.0193  0.2381 -0.0909
 2719SOL    HW2 8750   1.160   2.948   0.976 -0.6436 -0.9232 -1.0036
 2720SOL     OW 8751   4.644   2.228   2.707 -0.2777 -0.3328 -0.3955
 2720SOL    HW1 8752   4.661   2.238   2.613  0.3096 -1.7475 -0.4554
 2720SOL    HW2 8753   4.731   2.226   2.747 -0.5249  1.7897  0.3908
 2721SOL     OW 8754   2.656   1.745   1.085  0.1299 -0.2048  0.7061
 2721SOL    HW1 8755   2.650   1.661   1.131  0.3990 -0.4554  0.2827
 2721SOL    HW2 8756   2.577   1.792   1.112 -0.4057 -0.8911  0.3502
 2722SOL     OW 8757   2.959   4.120   1.843  0.1163  0.4351 -0.1595
 2722SOL    HW1 8758   2.915   4.137   1.926 -1.5695 -1.0297 -0.6714
 2722SOL    HW2 8759   3.037   4.174   1.845 -0.4160  1.2162  1.9275
 2723SOL     OW 8760   2.833   2.407   1.424 -0.2494 -1.1675  0.1833
 2723SOL    HW1 8761   2.747   2.364   1.429 -0.7326 -0.7967 -3.0455
 2723SOL    HW2 8762   2.818   2.494   1.460 -0.9324 -1.4520  0.6225
 2724SOL     OW 8763   5.732   3.086   1.620  0.3462 -0.1356 -0.4491
 2724SOL    HW1 8764   5.686   3.165   1.650 -2.2317 -2.5374  2.7068
 2724SOL    HW2 8765   5.704   3.074   1.530 -0.3326  1.7662 -0.5380
 2725SOL     OW 8766   5.693   5.183   1.462 -0.3599 -0.4098 -0.2407
 2725SOL    HW1 8767   5.624   5.150   1.405 -2.1949  3.1288 -0.3072
 2725SOL    HW2 8768   5.690   5.125   1.539 -3.0622 -0.7206 -0.4838
 2726SOL     OW 8769   7.123   0.432   0.624 -0.5678  0.1164  0.6042
 2726SOL    HW1 8770   7.155   0.515   0.589 -0.1777 -0.5739 -0.7128
 2726SOL    HW2 8771   7.066   0.397   0.555 -0.4097 -0.9028  0.9777
 2727SOL     OW 8772   0.582   3.527   1.677 -0.0354  0.1212 -0.3772
 2727SOL    HW1 8773   0.662   3.577   1.661  0.3151 -0.9613 -2.3162
 2727SOL    HW2 8774   0.514   3.594   1.684  0.9532  1.0408  0.8904
 2728SOL     OW 8775   2.513   0.822   0.458 -0.0743 -0.0433 -0.0870
 2728SOL    HW1 8776   2.515   0.738   0.504 -1.2379 -0.9183 -1.5482
 2728SOL    HW2 8777   2.553   0.803   0.372  0.3396  1.0883 -0.1603
 2729SOL     OW 8778   6.336   2.557   2.754  0.1882  0.0077 -0.1965
 2729SOL    HW1 8779   6.411   2.522   2.705 -0.4202 -0.8865 -0.5200
 2729SOL    HW2 8780   6.368   2.640   2.790  0.8423  0.4177 -1.6295
 2730SOL     OW 8781   2.239   4.114   3.174 -0.0406  0.0689 -0.1938
 2730SOL    HW1 8782   2.186   4.048   3.219  0.6374 -1.0898 -1.0379
 2730SOL    HW2 8783   2.230   4.092   3.081  0.0351  1.3070 -0.5131
 2731SOL     OW 8784   7.122   2.071   3.099  0.3340 -0.4228  0.2738
 2731SOL    HW1 8785   7.159   2.082   3.187  0.8640 -1.1069  0.1395
 2731SOL    HW2 8786   7.161   2.142   3.048  0.0909 -0.0749  0.5612
 2732SOL     OW 8787   0.699   1.655   0.889 -0.1954  0.3638  0.0404
 2732SOL    HW1 8788   0.636   1.636   0.818 -0.4411 -1.0187  0.5889
 2732SOL    HW2 8789   0.681   1.746   0.913 -1.1552  0.3764 -0.6422
 2733SOL     OW 8790   6.451   0.617   3.415 -0.0142 -0.4913 -0.1095
 2733SOL    HW1 8791   6.418   0.645   3.500 -1.1659  1.7679 -1.2055
 2733SOL    HW2 8792   6.390   0.548   3.387 -0.4143 -0.3188  0.3273
 2734SOL     OW 8793   4.773   5.168   1.107 -0.3314 -0.2891  0.6099
 2734SOL    HW1 8794   4.688   5.176   1.149 -0.1520  0.4912  0.8338
 2734SOL    HW2 8795   4.836   5.184   1.177 -0.0330  2.6837 -0.2008
 2735SOL     OW 8796   4.661   3.552   0.507  0.1512  0.1680 -0.3923
 2735SOL    HW1 8797   4.713   3.625   0.473  0.5089 -0.6699 -1.7256
 2735SOL    HW2 8798   4.706   3.524   0.586 -0.3214  1.7470  0.4776
 2736SOL     OW 8799   2.023   0.346   0.019 -0.3107 -0.2100 -0.4176
 2736SOL    HW1 8800   2.100   0.395   0.048 -0.4288 -0.0118 -0.4335
 2736SOL    HW2 8801   1.984   0.313   0.099  0.1525 -0.8621 -0.4542
 2737SOL     OW 8802   4.282   0.597   0.642  0.1939 -0.1271  0.1617
 2737SOL    HW1 8803   4.337   0.533   0.598 -0.0887 -0.9976  1.0429
 2737SOL    HW2 8804   4.220   0.625   0.575  0.4948 -0.5715 -0.3106
 2738SOL     OW 8805   5.581   3.804   2.921  0.1323 -0.0988 -0.5429
 2738SOL    HW1 8806   5.546   3.802   3.010  0.3114  1.0051 -0.4334
 2738SOL    HW2 8807   5.530   3.739   2.874 -0.4448 -0.1988  0.2032
 2739SOL     OW 8808   5.089   4.061   1.965 -0.1767 -1.5337 -0.0611
 2739SOL    HW1 8809   5.108   4.011   1.885 -0.3646 -2.4769  0.4747
 2739SOL    HW2 8810   5.094   3.997   2.035  0.1909 -0.6684  0.7225
 2740SOL     OW 8811   6.228   3.265   2.577  0.3356 -0.1297  0.4537
 2740SOL    HW1 8812   6.139   3.279   2.543  0.5676  0.9443  0.2636
 2740SOL    HW2 8813   6.276   3.230   2.502 -0.0343 -1.1760  0.6902
 2741SOL     OW 8814   3.319   3.677   2.936 -0.5383 -0.3238 -0.5090
 2741SOL    HW1 8815   3.364   3.724   2.866 -0.4112 -1.8804 -1.5040
 2741SOL    HW2 8816   3.308   3.743   3.005  0.9346  0.7739 -1.2606
 2742SOL     OW 8817   4.999   2.033   1.845  0.0658 -0.2607 -0.4820
 2742SOL    HW1 8818   5.021   2.116   1.803  1.8501 -0.5668 -0.2159
 2742SOL    HW2 8819   5.064   2.022   1.914 -2.1699 -0.2633  1.7791
 2743SOL     OW 8820   3.535   0.862   2.134  0.5139  0.6108 -0.5604
 2743SOL    HW1 8821   3.495   0.801   2.073 -0.0269 -0.7191  1.0519
 2743SOL    HW2 8822   3.468   0.929   2.148  0.2943  0.4314 -0.7410
 2744SOL     OW 8823   5.235   3.202   3.068 -0.1952 -0.4237  0.1027
 2744SOL    HW1 8824   5.293   3.264   3.024 -1.0797  0.5132  0.2254
 2744SOL    HW2 8825   5.290   3.162   3.136  0.3295  0.4022  0.1776
 2745SOL     OW 8826   7.264   0.052   0.597  0.6435  0.0235  0.1210
 2745SOL    HW1 8827   7.326  -0.011   0.561 -0.3733 -1.4408  0.8637
 2745SOL    HW2 8828   7.318   0.107   0.655  1.6524  0.2825 -1.0095
 2746SOL     OW 8829   7.155   0.472   0.247  0.0867 -0.1887 -1.1882
 2746SOL    HW1 8830   7.246   0.500   0.233 -0.4270  2.6822  0.3675
 2746SOL    HW2 8831   7.105   0.554   0.252 -2.1704 -1.5348  0.6491
 2747SOL     OW 8832   6.423   2.709   1.595 -0.1667 -0.2629 -0.1804
 2747SOL    HW1 8833   6.379   2.781   1.640 -0.6234 -0.6619  0.0331
 2747SOL    HW2 8834   6.512   2.709   1.630 -0.6911 -0.9799  1.2703
 2748SOL     OW 8835   0.070   5.234   0.312  0.6118 -0.3053  0.5496
 2748SOL    HW1 8836   0.114   5.275   0.386  0.4406 -1.3527  1.2580
 2748SOL    HW2 8837   0.137   5.179   0.271  0.3562 -0.7824  0.7610
 2749SOL     OW 8838   4.152   4.308   2.573 -0.4176  0.2607 -0.0694
 2749SOL    HW1 8839   4.205   4.339   2.647 -1.0204 -3.2971  2.0869
 2749SOL    HW2 8840   4.209   4.246   2.528 -0.4292  1.6228 -2.0748
 2750SOL     OW 8841   3.053   4.834   1.243  0.0453 -0.5711  0.2062
 2750SOL    HW1 8842   3.068   4.926   1.222  0.5615 -0.9096 -0.9192
 2750SOL    HW2 8843   2.989   4.837   1.315 -0.7323  0.6400 -0.4934
 2751SOL     OW 8844   3.437   2.734   1.619  0.2793  0.3457 -0.3482
 2751SOL    HW1 8845   3.443   2.732   1.523  1.2782 -1.7065 -0.3035
 2751SOL    HW2 8846   3.502   2.798   1.646 -0.1990  1.1361 -1.0473
 2752SOL     OW 8847   4.646   2.196   2.111  0.0075 -0.1281  0.6124
 2752SOL    HW1 8848   4.721   2.256   2.108 -0.6940  0.8398  1.6630
 2752SOL    HW2 8849   4.660   2.144   2.190  0.5894 -1.3754 -0.2679
 2753SOL     OW 8850   1.832   3.008   3.036 -0.2296 -0.7276 -0.5459
 2753SOL    HW1 8851   1.830   3.075   3.105 -0.4985 -1.9747  0.6953
 2753SOL    HW2 8852   1.743   2.972   3.036  0.1110 -1.5822 -0.6906
 2754SOL     OW 8853   4.114   2.346   0.258  0.1542 -0.4410  0.1337
 2754SOL    HW1 8854   4.180   2.305   0.202  0.8413 -2.6941  2.4097
 2754SOL    HW2 8855   4.123   2.440   0.240  1.7827 -0.8948 -1.8944
 2755SOL     OW 8856   1.877   1.392   0.998 -0.3176 -0.1925  0.2588
 2755SOL    HW1 8857   1.830   1.372   1.079 -1.0956 -0.2932 -0.2082
 2755SOL    HW2 8858   1.916   1.478   1.014 -0.4955 -0.1936  0.7296
 2756SOL     OW 8859   4.179   4.346   2.894 -0.1824 -0.4422  0.3708
 2756SOL    HW1 8860   4.140   4.371   2.977  2.4061 -1.0323  1.8924
 2756SOL    HW2 8861   4.273   4.361   2.906  0.3523 -1.0535 -2.2721
 2757SOL     OW 8862   0.739   0.836   2.752  0.2039 -0.6477  0.4743
 2757SOL    HW1 8863   0.750   0.855   2.846 -1.5558  2.2423  0.2167
 2757SOL    HW2 8864   0.799   0.896   2.709 -0.3220 -0.6628 -0.2871
 2758SOL     OW 8865   6.845   0.054   3.164  0.7688 -0.2141 -0.0673
 2758SOL    HW1 8866   6.799   0.021   3.241 -1.1240  0.7009 -0.7457
 2758SOL    HW2 8867   6.853   0.148   3.179  2.1524 -0.2955 -0.1378
 2759SOL     OW 8868   2.128   2.420   0.512 -0.1830  0.2182  0.5364
 2759SOL    HW1 8869   2.181   2.345   0.538 -1.8464 -1.9316 -1.8725
 2759SOL    HW2 8870   2.107   2.464   0.595  1.0782 -1.7544  2.0029
 2760SOL     OW 8871   6.683   1.006   2.556  0.3935 -0.5556  0.2802
 2760SOL    HW1 8872   6.723   1.020   2.470  1.2200 -2.2194  0.3496
 2760SOL    HW2 8873   6.589   1.016   2.541  0.4557 -1.6880 -1.0206
 2761SOL     OW 8874   2.743   1.480   2.329 -0.3672 -0.2679  0.8217
 2761SOL    HW1 8875   2.736   1.436   2.244 -1.9977  0.5209  0.4882
 2761SOL    HW2 8876   2.833   1.511   2.332  1.0718 -4.0000  1.3463
 2762SOL     OW 8877   6.636   0.465   1.433 -0.8565  0.5561  0.6642
 2762SOL    HW1 8878   6.543   0.481   1.417 -0.9760 -0.6888 -0.0272
 2762SOL    HW2 8879   6.638   0.388   1.489 -0.2239  0.1195  0.0498
 2763SOL     OW 8880   1.328   3.047   0.669 -0.1230 -0.0561 -0.2660
 2763SOL    HW1 8881   1.391   2.997   0.721 -0.4428 -0.3397 -0.1454
 2763SOL    HW2 8882   1.344   3.138   0.694  0.6468 -0.0726 -0.6916
 2764SOL     OW 8883   5.820   3.606   0.015 -0.3387 -0.7271  0.6074
 2764SOL    HW1 8884   5.899   3.554   0.031 -0.6285 -1.7176 -0.9736
 2764SOL    HW2 8885   5.852   3.691  -0.012  0.1523 -0.4040  2.1184
 2765SOL     OW 8886   2.866   2.111   0.996  0.2167  0.7725  0.0799
 2765SOL    HW1 8887   2.955   2.108   0.962  0.1747 -0.4727  0.0469
 2765SOL    HW2 8888   2.876   2.122   1.091  0.5403 -2.4374  0.5226
 2766SOL     OW 8889   5.054   5.008   3.432  0.1447 -0.0245 -0.0408
 2766SOL    HW1 8890   4.969   5.039   3.399  0.2038  0.9286  0.6638
 2766SOL    HW2 8891   5.116   5.076   3.407  0.8089 -0.9184 -0.9367
 2767SOL     OW 8892   4.137   5.266   3.426  0.1765 -0.1209 -0.2573
 2767SOL    HW1 8893   4.154   5.325   3.499  1.8142  0.8683 -1.3550
 2767SOL    HW2 8894   4.087   5.194   3.464 -0.7705  1.3240  1.4018
 2768SOL     OW 8895   3.451   2.705   1.321 -0.0322  0.5628 -0.0655
 2768SOL    HW1 8896   3.371   2.658   1.298  1.1998 -0.6265 -2.3208
 2768SOL    HW2 8897   3.477   2.749   1.239  2.5874 -0.6572 -0.0077
 2769SOL     OW 8898   3.998   1.374   2.109 -0.0717 -0.1039 -0.4742
 2769SOL    HW1 8899   3.968   1.283   2.108 -0.7376  0.0696  0.9434
 2769SOL    HW2 8900   4.059   1.380   2.036  0.1452 -1.7490 -0.4681
 2770SOL     OW 8901   0.321   3.953   3.461  0.0400 -0.5542 -0.4818
 2770SOL    HW1 8902   0.364   3.873   3.491  0.3464 -0.4372 -0.6094
 2770SOL    HW2 8903   0.328   4.013   3.535  3.0280  0.6287 -1.5651
 2771SOL     OW 8904   3.446   3.481   1.592  0.3734 -0.2131  0.3475
 2771SOL    HW1 8905   3.410   3.392   1.598  0.0853 -0.0286  1.6512
 2771SOL    HW2 8906   3.383   3.536   1.639  1.2546  0.4558  0.7942
 2772SOL     OW 8907   2.333   4.840   1.161  0.0058 -0.1475  0.0842
 2772SOL    HW1 8908   2.314   4.825   1.068  0.1964 -1.4597  0.2340
 2772SOL    HW2 8909   2.428   4.828   1.168 -0.0749 -0.5705  0.5258
 2773SOL     OW 8910   5.503   5.138   2.679 -0.5711 -0.0066 -0.5464
 2773SOL    HW1 8911   5.587   5.114   2.717 -0.7758 -1.8697 -1.1848
 2773SOL    HW2 8912   5.510   5.232   2.662 -0.0890  0.7643  3.0439
 2774SOL     OW 8913   5.548   3.591   0.511  0.1734 -0.2783 -0.2170
 2774SOL    HW1 8914   5.555   3.685   0.526  1.2580 -0.1638 -1.2536
 2774SOL    HW2 8915   5.463   3.567   0.548  0.2727  0.9356  0.8643
 2775SOL     OW 8916   1.637   4.759   2.354 -0.4804  0.4755 -0.3627
 2775SOL    HW1 8917   1.548   4.793   2.362 -1.2845 -1.2551 -1.4150
 2775SOL    HW2 8918   1.632   4.696   2.282  1.4215 -0.2062  0.0530
 2776SOL     OW 8919   3.916   3.551   0.498  0.2957 -0.1205 -0.6978
 2776SOL    HW1 8920   3.971   3.483   0.535 -0.8744 -1.2049 -0.8632
 2776SOL    HW2 8921   3.830   3.537   0.538  0.4724  2.6283  0.9431
 2777SOL     OW 8922   0.405   5.276   2.744  0.9794 -0.0568  0.3451
 2777SOL    HW1 8923   0.401   5.369   2.766 -0.6730 -0.1579  0.5880
 2777SOL    HW2 8924   0.429   5.232   2.825  1.3778  0.1198  0.3241
 2778SOL     OW 8925   5.816   3.768   1.523 -0.9037 -0.2353  0.3756
 2778SOL    HW1 8926   5.783   3.787   1.435 -0.3560  0.4814  0.3163
 2778SOL    HW2 8927   5.906   3.740   1.510 -0.9240 -0.4518  0.6860
 2779SOL     OW 8928   6.974   3.769   0.409  0.0388  0.6835 -0.0245
 2779SOL    HW1 8929   6.912   3.825   0.362 -0.5739 -0.4606 -0.6235
 2779SOL    HW2 8930   7.060   3.799   0.379 -0.3277  0.0912 -1.8006
 2780SOL     OW 8931   6.472   5.029   1.098  0.5654  0.3016  0.4541
 2780SOL    HW1 8932   6.448   5.122   1.099 -0.2603  0.1060  0.2511
 2780SOL    HW2 8933   6.499   5.013   1.007  0.0514  0.1986  0.3124
 2781SOL     OW 8934   5.199   3.676   1.277  0.2897  0.5951  0.0091
 2781SOL    HW1 8935   5.154   3.641   1.355 -2.1146  2.0693 -0.6045
 2781SOL    HW2 8936   5.176   3.769   1.276  0.6921  0.7127 -2.1979
 2782SOL     OW 8937   4.861   3.497   2.184 -0.0261  0.2085 -0.6982
 2782SOL    HW1 8938   4.804   3.565   2.149 -1.6341 -0.7932 -0.1178
 2782SOL    HW2 8939   4.908   3.463   2.108 -0.0145  1.2166 -1.1455
 2783SOL     OW 8940   1.464   0.752   0.703  0.2844 -0.0426  0.3893
 2783SOL    HW1 8941   1.458   0.673   0.757 -0.1297 -0.8864 -0.8430
 2783SOL    HW2 8942   1.470   0.719   0.614  1.0338  1.3191 -0.0833
 2784SOL     OW 8943   2.940   3.692   0.073 -0.2906 -0.2280  0.2306
 2784SOL    HW1 8944   2.886   3.767   0.049 -0.0970 -0.0317  0.4117
 2784SOL    HW2 8945   3.024   3.708   0.031 -0.4761 -0.7038 -0.3372
 2785SOL     OW 8946   4.746   1.777   0.048 -0.2350  0.2144  0.2223
 2785SOL    HW1 8947   4.800   1.738  -0.021 -0.1871 -1.1008  0.9688
 2785SOL    HW2 8948   4.723   1.704   0.105 -0.8922  1.1439  1.1975
 2786SOL     OW 8949   4.695   0.659   1.565 -0.2365  0.3814  0.4097
 2786SOL    HW1 8950   4.733   0.595   1.506 -2.0499 -0.0933 -0.3150
 2786SOL    HW2 8951   4.702   0.742   1.519 -0.5827  0.1987  0.0212
 2787SOL     OW 8952   5.846   0.477   0.024 -0.0380 -0.3076  0.4563
 2787SOL    HW1 8953   5.779   0.545   0.020  0.9150  0.6053 -1.0567
 2787SOL    HW2 8954   5.797   0.395   0.018 -1.1743  0.2243  1.9151
 2788SOL     OW 8955   1.704   3.878   1.469 -0.4170  0.1542  0.1707
 2788SOL    HW1 8956   1.637   3.943   1.447 -0.0127  0.2356 -0.8415
 2788SOL    HW2 8957   1.662   3.794   1.455 -0.1393  0.2024 -1.0528
 2789SOL     OW 8958   3.961   1.686   0.789  0.3001 -0.0022 -0.2295
 2789SOL    HW1 8959   3.969   1.600   0.829  0.0963  0.1690  0.1803
 2789SOL    HW2 8960   3.940   1.667   0.697  0.1007 -0.3847 -0.1072
 2790SOL     OW 8961   7.239   0.818   2.373 -0.1024 -0.0761  0.3109
 2790SOL    HW1 8962   7.178   0.871   2.425 -0.4013 -0.2140  0.1059
 2790SOL    HW2 8963   7.256   0.741   2.428  0.8235  0.5126  0.8804
 2791SOL     OW 8964   4.584   1.790   3.058  0.0189  1.1427 -0.0005
 2791SOL    HW1 8965   4.518   1.859   3.058 -1.0119  0.1831  0.6018
 2791SOL    HW2 8966   4.550   1.724   3.117  1.0414  0.1519 -0.4768
 2792SOL     OW 8967   6.614   0.158   2.929  0.4815  0.5076  0.4207
 2792SOL    HW1 8968   6.696   0.208   2.932  1.0352  0.1967 -3.8401
 2792SOL    HW2 8969   6.642   0.067   2.933  0.4197  0.4048 -0.9270
 2793SOL     OW 8970   6.257   5.227   0.097  0.8439 -0.2702  0.0860
 2793SOL    HW1 8971   6.181   5.180   0.131  0.2082  0.2139 -0.6333
 2793SOL    HW2 8972   6.323   5.221   0.167 -0.2384  0.2756  1.1811
 2794SOL     OW 8973   7.161   3.702   1.569 -0.0868  0.3036 -0.3244
 2794SOL    HW1 8974   7.241   3.718   1.518  0.2710 -0.5464 -0.0528
 2794SOL    HW2 8975   7.185   3.632   1.629 -1.0566  0.0097 -0.2624
 2795SOL     OW 8976   1.095   4.242   0.912  0.5694  0.2933  0.0669
 2795SOL    HW1 8977   1.163   4.258   0.977  1.4545  1.0802 -0.9943
 2795SOL    HW2 8978   1.106   4.150   0.887  1.8017  0.6079 -0.6559
 2796SOL     OW 8979   2.359   2.909   1.265  1.0208  0.5234  0.6408
 2796SOL    HW1 8980   2.411   2.985   1.291  2.1533  0.0684 -0.2197
 2796SOL    HW2 8981   2.310   2.938   1.188  0.2046  0.8512  1.2607
 2797SOL     OW 8982   3.567   1.679   3.043 -0.0120  0.7035 -0.8162
 2797SOL    HW1 8983   3.660   1.695   3.033 -0.2961  2.3362 -1.1875
 2797SOL    HW2 8984   3.532   1.687   2.954 -0.3740 -0.9333 -0.8392
 2798SOL     OW 8985   4.009   3.323   1.367  0.5961 -0.4189 -0.2036
 2798SOL    HW1 8986   4.099   3.298   1.348  0.5595 -1.3156  0.6809
 2798SOL    HW2 8987   3.974   3.248   1.416 -1.2270 -0.9369 -2.1676
 2799SOL     OW 8988   5.082   4.218   2.294  0.6364  0.6600  0.3219
 2799SOL    HW1 8989   5.074   4.123   2.308 -0.1665  0.5929 -0.4573
 2799SOL    HW2 8990   5.174   4.231   2.270  0.5621 -0.0505 -0.4005
 2800SOL     OW 8991   0.721   0.712   3.325 -0.0514  0.4687 -0.0973
 2800SOL    HW1 8992   0.793   0.650   3.340 -1.0615 -0.9760 -1.0162
 2800SOL    HW2 8993   0.761   0.782   3.273  0.6278 -0.4666 -0.8728
 2801SOL     OW 8994   2.066   3.759   1.196 -0.5250 -0.0633 -0.5119
 2801SOL    HW1 8995   2.050   3.846   1.158 -0.3735  0.1970  0.0091
 2801SOL    HW2 8996   2.002   3.752   1.266  0.7039  0.4200  0.7002
 2802SOL     OW 8997   1.282   0.075   0.412  0.1615  0.5959 -0.3214
 2802SOL    HW1 8998   1.193   0.107   0.395  0.2102  0.7637 -0.2594
 2802SOL    HW2 8999   1.312   0.126   0.487  0.5270  0.9339 -0.6944
 2803SOL     OW 9000   0.416   3.405   2.723  0.3324  0.2937 -0.3938
 2803SOL    HW1 9001   0.498   3.410   2.773 -0.1922  0.8268  0.4241
 2803SOL    HW2 9002   0.398   3.495   2.697 -0.4056  0.2967  0.1096
 2804SOL     OW 9003   7.163   0.065   1.727  0.0873 -0.1479 -0.1430
 2804SOL    HW1 9004   7.221   0.012   1.672 -0.7923 -0.2861 -0.9468
 2804SOL    HW2 9005   7.077   0.026   1.716 -0.0074 -0.6578  1.9403
 2805SOL     OW 9006   4.865   4.258   1.968  0.1536  0.5518  0.0898
 2805SOL    HW1 9007   4.933   4.195   1.990 -1.0744 -1.2267 -0.9451
 2805SOL    HW2 9008   4.789   4.205   1.945 -0.8897  2.4111 -1.0541
 2806SOL     OW 9009   0.111   3.811   3.330 -0.5171  0.6605 -0.0975
 2806SOL    HW1 9010   0.066   3.834   3.411  1.6049 -0.0075  1.3363
 2806SOL    HW2 9011   0.193   3.860   3.333  1.1728 -1.9704 -0.0998
 2807SOL     OW 9012   6.571   4.508   1.314  0.2996 -0.2837 -0.3047
 2807SOL    HW1 9013   6.583   4.590   1.266  1.6869  0.5997  1.4556
 2807SOL    HW2 9014   6.653   4.460   1.303  0.9318  0.2467  1.6574
 2808SOL     OW 9015   7.030   0.794   1.562 -0.4476 -0.0677 -0.1027
 2808SOL    HW1 9016   7.100   0.811   1.624 -0.2014 -0.4627 -0.2681
 2808SOL    HW2 9017   6.950   0.805   1.613 -0.2624  0.1421  0.1478
 2809SOL     OW 9018   2.239   1.274   3.012 -0.3521 -0.1925  0.1566
 2809SOL    HW1 9019   2.253   1.274   2.918  0.8773  0.7043  0.3066
 2809SOL    HW2 9020   2.266   1.187   3.041  2.1549  0.4519  0.0074
 2810SOL     OW 9021   5.488   0.074   3.442 -0.1360 -0.0618  0.3530
 2810SOL    HW1 9022   5.489   0.007   3.511  0.7925 -0.2875  0.1390
 2810SOL    HW2 9023   5.426   0.040   3.377 -0.9091  0.0869  1.0102
 2811SOL     OW 9024   6.692   3.821   3.070 -0.2264  0.1505  0.0316
 2811SOL    HW1 9025   6.685   3.917   3.064 -0.4255  0.3837  2.7668
 2811SOL    HW2 9026   6.785   3.803   3.054  0.1337  0.9848  1.0891
 2812SOL     OW 9027   3.721   0.645   2.054  0.1980 -0.1721 -0.1796
 2812SOL    HW1 9028   3.717   0.559   2.096 -0.1766  0.3416  0.8650
 2812SOL    HW2 9029   3.664   0.700   2.106  0.9658  0.8915 -0.4327
 2813SOL     OW 9030   3.464   3.921   1.191 -0.1178  0.0737  0.2082
 2813SOL    HW1 9031   3.435   3.919   1.283 -0.7098 -1.1075  0.0138
 2813SOL    HW2 9032   3.492   4.011   1.177 -1.8357  0.7759  0.9962
 2814SOL     OW 9033   1.386   0.024   1.539 -0.0793 -0.4293 -0.1171
 2814SOL    HW1 9034   1.328  -0.042   1.500 -0.4157 -0.2062 -0.0050
 2814SOL    HW2 9035   1.326   0.089   1.577  0.2417 -0.7025  0.8751
 2815SOL     OW 9036   6.820   0.345   1.771 -0.1956 -0.1635  0.8269
 2815SOL    HW1 9037   6.772   0.318   1.692  2.2298  0.0212 -0.8370
 2815SOL    HW2 9038   6.844   0.436   1.754  1.6486 -0.5707  1.0317
 2816SOL     OW 9039   5.553   4.714   2.917 -0.0272 -0.0112 -0.5337
 2816SOL    HW1 9040   5.636   4.759   2.935 -1.1720  1.1815  2.4984
 2816SOL    HW2 9041   5.493   4.784   2.891 -0.3655 -0.7106 -1.6901
 2817SOL     OW 9042   1.639   0.169   0.007 -0.0274  0.1694  0.0926
 2817SOL    HW1 9043   1.618   0.078  -0.015 -0.4581 -0.3062  2.2597
 2817SOL    HW2 9044   1.721   0.164   0.056 -0.7426  0.7627  1.3990
 2818SOL     OW 9045   5.553   1.570   0.068 -0.0263 -0.3225 -0.3263
 2818SOL    HW1 9046   5.487   1.602   0.006 -0.1551 -1.8843 -1.0647
 2818SOL    HW2 9047   5.608   1.512   0.015  1.6968  0.6043  0.3831
 2819SOL     OW 9048   1.771   1.094   2.525 -0.1169  0.1841  0.4835
 2819SOL    HW1 9049   1.794   1.096   2.617 -0.6917  1.9597  0.6272
 2819SOL    HW2 9050   1.737   1.181   2.507  0.1002 -0.0877 -1.4459
 2820SOL     OW 9051   7.083   0.657   2.806 -0.5319 -0.9286 -0.3892
 2820SOL    HW1 9052   7.116   0.573   2.837  0.6519 -0.3881 -0.1564
 2820SOL    HW2 9053   7.155   0.718   2.818 -0.7817 -0.2212 -2.1385
 2821SOL     OW 9054   7.293   1.342   0.525 -0.1818  0.2054  0.2812
 2821SOL    HW1 9055   7.198   1.344   0.532 -0.1632  0.3156  0.5199
 2821SOL    HW2 9056   7.323   1.332   0.615 -0.0112 -1.4196  0.0781
 2822SOL     OW 9057   6.436   5.093   0.594 -0.5352  0.0603  0.9344
 2822SOL    HW1 9058   6.493   5.017   0.604  1.0311  1.3361  2.3713
 2822SOL    HW2 9059   6.360   5.073   0.649 -1.1157 -1.2925 -0.3052
 2823SOL     OW 9060   4.825   3.052   2.855 -0.0955 -0.3206  0.1570
 2823SOL    HW1 9061   4.858   2.996   2.784  0.3583  0.2636 -0.1053
 2823SOL    HW2 9062   4.734   3.025   2.866  0.2185 -1.3771  0.3121
 2824SOL     OW 9063   4.082   0.881   3.246  0.3250  0.2075 -1.0192
 2824SOL    HW1 9064   4.097   0.935   3.168  0.6411 -1.1243 -1.9137
 2824SOL    HW2 9065   3.987   0.871   3.250  0.3436 -0.3176 -1.6746
 2825SOL     OW 9066   1.846   1.417   2.466  0.2085 -0.4880  0.2837
 2825SOL    HW1 9067   1.918   1.361   2.437  1.3409  1.2901 -0.4700
 2825SOL    HW2 9068   1.779   1.407   2.398 -0.1174 -1.8043  0.7618
 2826SOL     OW 9069   6.935   4.905   1.732  0.6374  0.1312  0.2914
 2826SOL    HW1 9070   6.953   4.923   1.824 -0.2054  1.0500  0.2858
 2826SOL    HW2 9071   7.009   4.945   1.685  1.1152 -0.4166  0.5585
 2827SOL     OW 9072   0.262   2.684   1.962  0.0904 -0.3481 -0.2801
 2827SOL    HW1 9073   0.233   2.710   1.875  0.4647 -0.4451 -0.4402
 2827SOL    HW2 9074   0.358   2.686   1.956  0.1820 -2.7845 -0.6409
 2828SOL     OW 9075   2.763   4.416   2.271 -0.1231  0.1060  0.2048
 2828SOL    HW1 9076   2.686   4.471   2.259  0.0651  0.0551 -1.4555
 2828SOL    HW2 9077   2.788   4.429   2.362 -1.6564  0.6880  0.5695
 2829SOL     OW 9078   5.703   0.100   0.748  0.0489  0.0141 -0.0631
 2829SOL    HW1 9079   5.607   0.099   0.755 -0.0271  0.3894 -0.8570
 2829SOL    HW2 9080   5.719   0.097   0.654  0.8201 -0.0837  0.0721
 2830SOL     OW 9081   6.422   2.783   3.281  0.0012  0.5944  0.7362
 2830SOL    HW1 9082   6.496   2.788   3.220  0.2133  0.6274  0.9946
 2830SOL    HW2 9083   6.454   2.824   3.361  0.0147 -0.2191  1.1548
 2831SOL     OW 9084   4.405   1.531   0.035 -0.1798  0.6351  0.5514
 2831SOL    HW1 9085   4.327   1.522   0.089 -0.2171  0.7957  0.5238
 2831SOL    HW2 9086   4.477   1.532   0.098 -0.1740  0.1325  0.5532
 2832SOL     OW 9087   5.112   1.371   1.077  0.2087 -0.1494  0.1840
 2832SOL    HW1 9088   5.042   1.320   1.038 -0.4124  0.9976 -0.2436
 2832SOL    HW2 9089   5.186   1.310   1.083 -1.1297 -1.7051  1.6786
 2833SOL     OW 9090   3.206   0.066   0.793 -0.1765  0.0010 -0.1026
 2833SOL    HW1 9091   3.224   0.153   0.756 -0.2774 -0.1378 -0.4873
 2833SOL    HW2 9092   3.285   0.016   0.775 -1.4949 -1.1907 -3.5210
 2834SOL     OW 9093   1.371   0.654   0.045  0.4137 -0.5963 -0.1404
 2834SOL    HW1 9094   1.351   0.596  -0.029  0.9925  1.7497 -2.3100
 2834SOL    HW2 9095   1.414   0.598   0.109 -1.3732 -3.0547 -0.9378
 2835SOL     OW 9096   0.207   3.123   0.335  0.1176 -0.5739  0.2207
 2835SOL    HW1 9097   0.226   3.118   0.428 -0.4039 -0.3035  0.3439
 2835SOL    HW2 9098   0.282   3.170   0.298  0.0773 -0.2261  0.5778
 2836SOL     OW 9099   4.907   2.041   2.520 -0.0860  0.5119 -0.3239
 2836SOL    HW1 9100   4.821   2.049   2.480 -0.5652  0.2781  0.6300
 2836SOL    HW2 9101   4.898   2.082   2.606  0.4333 -0.4846  0.2287
 2837SOL     OW 9102   0.562   1.601   2.600 -0.3148 -0.0708  0.5099
 2837SOL    HW1 9103   0.540   1.558   2.683  0.6134  0.3255  0.9770
 2837SOL    HW2 9104   0.636   1.551   2.566  0.1046  0.5137  0.5447
 2838SOL     OW 9105   2.787   0.284   1.383  0.5231  0.1815  0.6595
 2838SOL    HW1 9106   2.768   0.344   1.312  2.1603  0.6611  0.6006
 2838SOL    HW2 9107   2.830   0.209   1.341  0.2913 -0.1456  0.9890
 2839SOL     OW 9108   4.114   0.387   1.319 -0.8570 -0.0027 -0.3118
 2839SOL    HW1 9109   4.045   0.376   1.254  0.4826  0.5427 -1.9186
 2839SOL    HW2 9110   4.182   0.326   1.291 -0.4380 -0.0820  0.8549
 2840SOL     OW 9111   2.520   0.849   2.688  0.0072  0.5308 -0.1420
 2840SOL    HW1 9112   2.473   0.922   2.649  0.8209  1.1213 -0.0247
 2840SOL    HW2 9113   2.596   0.836   2.632 -0.9600 -1.3059 -1.1172
 2841SOL     OW 9114   6.766   1.090   2.309  0.2322 -0.3809 -0.0042
 2841SOL    HW1 9115   6.696   1.147   2.275  0.4664 -0.2647 -0.3048
 2841SOL    HW2 9116   6.845   1.145   2.305  0.4949 -0.7833 -0.4690
 2842SOL     OW 9117   3.195   3.894   1.648 -0.2131  0.2073 -0.6429
 2842SOL    HW1 9118   3.194   3.986   1.621 -0.1169  1.1448  2.2262
 2842SOL    HW2 9119   3.117   3.884   1.703  1.2993 -0.5628  1.4950
 2843SOL     OW 9120   2.167   5.320   0.759 -0.2786  0.3012 -0.2198
 2843SOL    HW1 9121   2.136   5.236   0.723  0.2357 -0.0625  0.1704
 2843SOL    HW2 9122   2.237   5.295   0.819  0.2100  1.0575 -0.4756
 2844SOL     OW 9123   2.021   1.534   2.077 -0.4832  0.3443  0.2830
 2844SOL    HW1 9124   2.089   1.587   2.118 -0.0213  0.4777 -0.6289
 2844SOL    HW2 9125   2.059   1.507   1.993 -1.7094  0.8200 -0.4535
 2845SOL     OW 9126   1.119   1.274   0.008 -0.3273  0.6674 -0.5369
 2845SOL    HW1 9127   1.030   1.240   0.005 -0.4918  0.7141  1.6836
 2845SOL    HW2 9128   1.114   1.359  -0.035 -1.5624  1.0233  0.2656
 2846SOL     OW 9129   2.691   3.534   0.070 -0.1290  0.0594  0.2305
 2846SOL    HW1 9130   2.618   3.549   0.129 -0.0830 -1.2318  0.6479
 2846SOL    HW2 9131   2.767   3.571   0.116 -0.3060  0.2445  0.3750
 2847SOL     OW 9132   5.985   2.893   3.288  0.2628  0.0487  0.1112
 2847SOL    HW1 9133   5.909   2.944   3.260 -0.4869 -1.6598 -1.1159
 2847SOL    HW2 9134   5.961   2.859   3.374  1.0164  2.1489  1.2412
 2848SOL     OW 9135   4.986   0.764   1.370 -0.4733  0.2103 -0.1078
 2848SOL    HW1 9136   4.914   0.816   1.404  0.9246  1.5304  0.9575
 2848SOL    HW2 9137   4.959   0.673   1.384 -1.4239  0.6938  1.3967
 2849SOL     OW 9138   6.509   4.129   0.138  0.3483  0.6040  0.2004
 2849SOL    HW1 9139   6.499   4.155   0.229  2.5966 -3.2628  1.7825
 2849SOL    HW2 9140   6.456   4.050   0.129  0.5545  0.6391 -1.7119
 2850SOL     OW 9141   7.353   4.230   3.403 -0.0717  0.9805 -0.2407
 2850SOL    HW1 9142   7.439   4.241   3.364  0.4654 -0.2974  0.4990
 2850SOL    HW2 9143   7.294   4.215   3.329  0.8927 -1.2660 -0.6313
 2851SOL     OW 9144   4.619   4.458   3.220 -0.1285 -0.2208 -0.6477
 2851SOL    HW1 9145   4.645   4.390   3.282  2.0669  1.6884  0.6495
 2851SOL    HW2 9146   4.523   4.454   3.220 -0.2670 -0.2279  3.0336
 2852SOL     OW 9147   6.037   5.270   0.792 -0.4317 -0.1264  0.6367
 2852SOL    HW1 9148   5.959   5.287   0.844  0.5220  0.0414  2.0910
 2852SOL    HW2 9149   6.106   5.319   0.837  0.6092 -0.7096 -0.2891
 2853SOL     OW 9150   5.636   3.592   2.003 -0.0128 -0.1925  0.1789
 2853SOL    HW1 9151   5.670   3.531   1.937 -2.3256 -2.1551  0.6866
 2853SOL    HW2 9152   5.592   3.536   2.067 -1.7360  1.9653  0.9925
 2854SOL     OW 9153   6.493   1.180   0.961  0.1927  0.4973  0.5592
 2854SOL    HW1 9154   6.508   1.086   0.950 -0.7083  0.6205 -2.6640
 2854SOL    HW2 9155   6.531   1.220   0.883 -1.6825  2.5367  0.5899
 2855SOL     OW 9156   5.050   0.013   3.439  0.3852  0.2212  0.4967
 2855SOL    HW1 9157   4.958   0.016   3.465  0.6831 -1.2833  1.8871
 2855SOL    HW2 9158   5.098   0.019   3.521  1.4564 -1.4751  0.0507
 2856SOL     OW 9159   3.645   4.951   1.426  0.0179  0.5473 -0.0323
 2856SOL    HW1 9160   3.704   4.927   1.355  0.0080  0.7016 -0.0923
 2856SOL    HW2 9161   3.695   5.012   1.480  0.7416 -1.0551  1.1913
 2857SOL     OW 9162   0.006   4.244   0.856 -0.0154 -0.0182 -0.0508
 2857SOL    HW1 9163   0.008   4.277   0.766  0.5489  1.4397  0.4656
 2857SOL    HW2 9164   0.095   4.212   0.871  0.4909  1.6284  0.6313
 2858SOL     OW 9165   3.537   2.079   2.895  0.3182  0.1677 -0.3679
 2858SOL    HW1 9166   3.602   2.030   2.945  0.0230  0.3730  0.2192
 2858SOL    HW2 9167   3.586   2.115   2.821  1.2710  1.7187  0.9497
 2859SOL     OW 9168   5.549   3.349   0.852  0.0696  0.1996 -0.4937
 2859SOL    HW1 9169   5.588   3.352   0.764 -1.6620  2.2773 -1.2567
 2859SOL    HW2 9170   5.490   3.273   0.849  2.3510 -1.7131  0.0111
 2860SOL     OW 9171   5.773   3.159   0.390 -0.3643 -0.7938 -0.0866
 2860SOL    HW1 9172   5.750   3.218   0.318  0.5013  0.3860  0.5661
 2860SOL    HW2 9173   5.717   3.083   0.377 -1.3112  0.0403 -1.1304
 2861SOL     OW 9174   5.512   3.806   2.188 -0.1546 -0.3007  0.0793
 2861SOL    HW1 9175   5.562   3.775   2.112  0.2205  0.1959  0.1225
 2861SOL    HW2 9176   5.442   3.860   2.149  0.8833  1.1309  0.1512
 2862SOL     OW 9177   4.596   4.435   0.654 -0.0737 -0.4389 -0.6579
 2862SOL    HW1 9178   4.505   4.464   0.646 -1.3747 -3.1833  2.2106
 2862SOL    HW2 9179   4.611   4.383   0.575 -0.9912  0.0304 -1.1613
 2863SOL     OW 9180   4.347   0.711   2.513  0.4252  0.8285 -0.1156
 2863SOL    HW1 9181   4.382   0.741   2.429 -0.0561 -0.7452 -0.9010
 2863SOL    HW2 9182   4.315   0.791   2.555 -0.5214  1.4777 -1.9804
 2864SOL     OW 9183   7.087   1.667   0.494 -0.0378  0.2445  0.5737
 2864SOL    HW1 9184   7.050   1.579   0.510 -1.0493  0.4830 -0.3212
 2864SOL    HW2 9185   7.011   1.725   0.497  0.7049  1.1960  1.7745
 2865SOL     OW 9186   5.360   3.240   2.783  0.1363  0.2997  0.2376
 2865SOL    HW1 9187   5.368   3.324   2.829 -0.4597 -0.4155  1.7306
 2865SOL    HW2 9188   5.346   3.263   2.691  1.2277  1.8012  0.4146
 2866SOL     OW 9189   5.027   4.754   3.233 -0.4174  0.0070  0.1513
 2866SOL    HW1 9190   4.979   4.719   3.158 -2.9949  0.9982  1.2243
 2866SOL    HW2 9191   4.960   4.796   3.287  1.6862  1.3581  1.8677
 2867SOL     OW 9192   6.674   0.882   2.830  0.3545  0.4504 -0.6228
 2867SOL    HW1 9193   6.655   0.788   2.836 -2.3099  0.8980 -0.7934
 2867SOL    HW2 9194   6.674   0.899   2.735  3.7727  0.2172 -0.8156
 2868SOL     OW 9195   4.254   2.613   1.079  0.1067 -0.0251 -0.3126
 2868SOL    HW1 9196   4.332   2.648   1.037  0.9818 -1.2244  0.2257
 2868SOL    HW2 9197   4.238   2.530   1.033  1.0545 -1.3368  1.5604
 2869SOL     OW 9198   0.578   2.388   1.757  0.0345 -0.2919 -0.1825
 2869SOL    HW1 9199   0.536   2.327   1.696 -1.1086 -1.2950  1.5241
 2869SOL    HW2 9200   0.535   2.372   1.841  1.9410  0.6232  1.0531
 2870SOL     OW 9201   1.960   1.984   2.380  0.4586 -0.1569 -0.1965
 2870SOL    HW1 9202   1.926   2.059   2.330 -0.2991  0.2811  0.9346
 2870SOL    HW2 9203   2.038   2.017   2.424  0.3887 -0.1598 -0.0684
 2871SOL     OW 9204   5.240   4.351   3.146  0.1716 -0.2088  0.0988
 2871SOL    HW1 9205   5.320   4.394   3.116 -0.5507  0.6945 -0.6299
 2871SOL    HW2 9206   5.267   4.264   3.173  1.0398 -0.7574 -2.3221
 2872SOL     OW 9207   0.592   2.866   0.488  0.1779 -0.0188  0.0528
 2872SOL    HW1 9208   0.533   2.938   0.467 -0.6367 -0.9926 -1.0857
 2872SOL    HW2 9209   0.535   2.790   0.497  0.8685 -0.3437  2.5203
 2873SOL     OW 9210   2.871   3.844   0.388  0.0848  0.2145 -0.1228
 2873SOL    HW1 9211   2.906   3.868   0.473  0.8087  0.4505 -0.4776
 2873SOL    HW2 9212   2.799   3.784   0.407 -0.3395  0.9764  0.6794
 2874SOL     OW 9213   0.847   1.457   0.087 -0.2592 -0.3720 -0.0629
 2874SOL    HW1 9214   0.846   1.390   0.019 -1.4510 -0.9229  0.4653
 2874SOL    HW2 9215   0.756   1.488   0.091  0.0303  0.4539  0.5000
 2875SOL     OW 9216   0.328   1.321   2.638  0.3960 -0.8049  0.1049
 2875SOL    HW1 9217   0.403   1.269   2.611  1.2446  1.4113 -2.2946
 2875SOL    HW2 9218   0.253   1.263   2.626  1.4540 -2.1177 -0.4172
 2876SOL     OW 9219   2.927   5.324   0.071 -0.5015  0.4084 -0.2310
 2876SOL    HW1 9220   2.901   5.340   0.162  0.3929 -0.1844  0.1450
 2876SOL    HW2 9221   2.845   5.317   0.023 -1.0406 -0.8544  0.8155
 2877SOL     OW 9222   2.135   1.003   1.283 -0.3419 -0.0554 -0.3447
 2877SOL    HW1 9223   2.057   0.962   1.246 -1.8443  2.6449 -0.3423
 2877SOL    HW2 9224   2.116   1.009   1.377 -0.8491  1.9999 -0.5505
 2878SOL     OW 9225   2.772   0.979   2.921  0.2722 -0.2419  0.1252
 2878SOL    HW1 9226   2.821   0.930   2.856 -1.6128 -0.6356 -1.0858
 2878SOL    HW2 9227   2.726   0.912   2.972  1.9892  0.0310  2.1800
 2879SOL     OW 9228   4.603   1.853   0.448  0.4328 -0.4942  0.0562
 2879SOL    HW1 9229   4.668   1.850   0.378  0.8518 -1.7867  0.4594
 2879SOL    HW2 9230   4.567   1.764   0.451  0.1417 -0.3537  1.2163
 2880SOL     OW 9231   5.425   2.999   2.913  0.1527  0.1712  0.1670
 2880SOL    HW1 9232   5.403   3.080   2.867  0.0824  0.5429  0.8396
 2880SOL    HW2 9233   5.341   2.955   2.925  0.2567 -0.3068 -0.7304
 2881SOL     OW 9234   4.628   3.286   2.138 -0.7017 -0.0457 -0.5399
 2881SOL    HW1 9235   4.704   3.315   2.088  0.3137  1.7236  1.8534
 2881SOL    HW2 9236   4.662   3.264   2.225 -2.3860 -2.9679 -0.4802
 2882SOL     OW 9237   5.274   4.233   0.283 -0.9193 -0.6831  0.7705
 2882SOL    HW1 9238   5.367   4.214   0.268 -0.6436  0.8487  0.3282
 2882SOL    HW2 9239   5.229   4.190   0.210 -0.3700 -0.0705  0.0411
 2883SOL     OW 9240   2.796   5.089   1.080  0.2309  0.3167 -0.3030
 2883SOL    HW1 9241   2.872   5.117   1.132 -0.4679  0.7464  0.4991
 2883SOL    HW2 9242   2.813   5.125   0.993  0.8980  0.4953 -0.1066
 2884SOL     OW 9243   6.001   4.335   3.300 -0.1992  0.2543  0.2403
 2884SOL    HW1 9244   6.028   4.399   3.367 -0.4982  0.8662 -0.2213
 2884SOL    HW2 9245   6.082   4.315   3.253 -0.4722  2.0008 -1.0677
 2885SOL     OW 9246   5.776   3.453   1.283 -0.6630 -0.2382  0.1255
 2885SOL    HW1 9247   5.851   3.513   1.289 -0.0496 -1.0904  3.5774
 2885SOL    HW2 9248   5.769   3.431   1.190  2.2074  1.3078 -0.5682
 2886SOL     OW 9249   5.630   2.149   2.436 -0.1963 -0.0088 -0.1817
 2886SOL    HW1 9250   5.570   2.208   2.389  0.1876  1.5840  1.2032
 2886SOL    HW2 9251   5.697   2.207   2.472  1.8863 -1.6750 -1.1726
 2887SOL     OW 9252   3.272   0.302   0.686 -0.0491 -0.1091  0.2848
 2887SOL    HW1 9253   3.215   0.310   0.610 -0.0872 -0.2268  0.3018
 2887SOL    HW2 9254   3.242   0.371   0.746  0.7324  0.7623 -0.2895
 2888SOL     OW 9255   4.116   3.594   2.226  0.2316  0.4288 -0.3046
 2888SOL    HW1 9256   4.196   3.577   2.177  0.9200  2.4076  0.0450
 2888SOL    HW2 9257   4.145   3.637   2.307 -1.1769  1.3032 -0.2261
 2889SOL     OW 9258   4.918   2.352   2.106  0.1380 -0.3309 -0.3611
 2889SOL    HW1 9259   4.959   2.418   2.162 -0.4203  0.0016 -0.3343
 2889SOL    HW2 9260   4.922   2.389   2.018  0.8604 -0.7776 -0.5253
 2890SOL     OW 9261   6.282   5.106   2.861  0.0004 -0.3382  0.7231
 2890SOL    HW1 9262   6.269   5.196   2.831 -1.2167 -0.6084  0.3689
 2890SOL    HW2 9263   6.337   5.065   2.794 -0.8372 -0.3130  0.0072
 2891SOL     OW 9264   2.546   3.006   0.999  0.2125  0.4562 -0.6277
 2891SOL    HW1 9265   2.637   2.976   1.002  0.1216  0.2028 -0.3515
 2891SOL    HW2 9266   2.503   2.942   0.941 -0.3040 -0.8514  1.1091
 2892SOL     OW 9267   5.879   1.735   2.577  0.9514 -0.3524 -0.2897
 2892SOL    HW1 9268   5.832   1.818   2.568  1.9309  0.1630 -0.7650
 2892SOL    HW2 9269   5.866   1.691   2.493  0.5788 -0.6173 -0.0996
 2893SOL     OW 9270   5.552   5.083   0.503 -0.2614  0.0462 -0.3925
 2893SOL    HW1 9271   5.593   5.014   0.450 -0.8682 -0.4259 -0.2513
 2893SOL    HW2 9272   5.553   5.048   0.592  0.6791  0.8023 -0.0812
 2894SOL     OW 9273   1.643   3.854   2.842 -0.2032  0.1753  0.0744
 2894SOL    HW1 9274   1.579   3.850   2.914  1.3330  2.0065  1.6779
 2894SOL    HW2 9275   1.712   3.794   2.868  0.1388  0.4852 -0.1104
 2895SOL     OW 9276   6.626   3.339   1.917  0.6210 -0.0579 -0.6220
 2895SOL    HW1 9277   6.646   3.428   1.889 -1.8474 -0.0562 -2.7546
 2895SOL    HW2 9278   6.586   3.350   2.004  2.3521  0.6262  0.1323
 2896SOL     OW 9279   5.353   2.619   1.095  0.6189  0.2545 -0.6654
 2896SOL    HW1 9280   5.289   2.686   1.122  0.6583  0.6292 -1.4679
 2896SOL    HW2 9281   5.405   2.603   1.174 -0.6639 -0.3026  0.1046
 2897SOL     OW 9282   6.717   4.156   1.434 -0.4067  0.7207 -0.5785
 2897SOL    HW1 9283   6.661   4.103   1.377 -0.6709  0.9467 -0.5284
 2897SOL    HW2 9284   6.778   4.199   1.373  0.4092 -0.3271 -0.5569
 2898SOL     OW 9285   0.258   4.532   3.008  0.3759  0.1950 -0.3413
 2898SOL    HW1 9286   0.343   4.561   3.041  0.8723 -1.8529  0.3543
 2898SOL    HW2 9287   0.223   4.478   3.079 -0.5001 -0.7960 -1.5012
 2899SOL     OW 9288   6.786   2.461   1.827  0.2634 -0.0514 -0.4191
 2899SOL    HW1 9289   6.849   2.391   1.846  1.0807  1.2051  2.0055
 2899SOL    HW2 9290   6.746   2.481   1.912 -1.2210  1.2344 -1.3634
 2900SOL     OW 9291   4.161   2.729   2.430  0.5473 -0.4754  0.2790
 2900SOL    HW1 9292   4.224   2.778   2.483  0.3140  0.8537 -0.6273
 2900SOL    HW2 9293   4.110   2.796   2.385  0.8188 -1.5307 -1.7220
 2901SOL     OW 9294   1.496   2.362   3.293  0.0155  0.3419  0.0697
 2901SOL    HW1 9295   1.441   2.418   3.348  0.5319 -0.5954  1.6282
 2901SOL    HW2 9296   1.514   2.415   3.215  1.1783  2.7050  1.8043
 2902SOL     OW 9297   3.452   5.212   3.378 -0.1167 -0.0704 -0.0473
 2902SOL    HW1 9298   3.546   5.226   3.391 -0.3730  1.8718  0.1220
 2902SOL    HW2 9299   3.413   5.237   3.462 -0.8039 -0.7009 -0.1700
 2903SOL     OW 9300   1.062   4.918   3.228 -0.2888 -0.5895 -0.3628
 2903SOL    HW1 9301   0.982   4.922   3.176 -0.9765 -0.9242  0.6601
 2903SOL    HW2 9302   1.036   4.943   3.316  0.9757  0.4999 -0.2597
 2904SOL     OW 9303   0.797   0.237   2.318 -0.6142  0.1092 -0.2029
 2904SOL    HW1 9304   0.750   0.154   2.320  0.0561 -0.2704 -0.0484
 2904SOL    HW2 9305   0.880   0.218   2.273 -0.7625  0.8559 -0.8252
 2905SOL     OW 9306   0.344   4.766   1.276 -0.0557 -0.4913 -0.2848
 2905SOL    HW1 9307   0.409   4.828   1.244 -2.3228  1.6225 -1.1230
 2905SOL    HW2 9308   0.331   4.704   1.204 -0.6892  0.5539 -1.0994
 2906SOL     OW 9309   4.664   3.912   2.559 -0.1442 -0.4901  0.2342
 2906SOL    HW1 9310   4.654   4.001   2.526 -0.7364 -0.6723 -0.0868
 2906SOL    HW2 9311   4.701   3.923   2.647 -1.0319  0.1187  0.5442
 2907SOL     OW 9312   1.238   3.865   1.637  0.3084 -0.4630 -0.2803
 2907SOL    HW1 9313   1.150   3.890   1.666  1.0722 -0.2692  2.0693
 2907SOL    HW2 9314   1.263   3.932   1.574  0.1389  1.6255  1.7556
 2908SOL     OW 9315   0.360   3.081   2.713 -0.3180  0.2371  0.3484
 2908SOL    HW1 9316   0.318   3.143   2.653 -1.0074  1.3541  1.9196
 2908SOL    HW2 9317   0.371   3.130   2.794  2.3341 -0.6424  0.5873
 2909SOL     OW 9318   5.908   0.631   2.079  0.3963 -0.5312  0.3230
 2909SOL    HW1 9319   5.909   0.619   1.984 -0.3263 -2.2251  0.4879
 2909SOL    HW2 9320   5.853   0.708   2.093  1.5956  0.5676 -0.6615
 2910SOL     OW 9321   4.530   2.478   3.204  0.1557  0.5480  0.4020
 2910SOL    HW1 9322   4.583   2.412   3.161 -1.1578 -0.0301 -0.4132
 2910SOL    HW2 9323   4.533   2.456   3.297 -1.1192 -1.3597  0.0439
 2911SOL     OW 9324   0.214   3.174   1.648  0.3176 -0.0200 -0.0738
 2911SOL    HW1 9325   0.134   3.188   1.699  0.0238 -2.0545  0.0996
 2911SOL    HW2 9326   0.278   3.232   1.689 -0.1843 -0.8107  1.9901
 2912SOL     OW 9327   6.300   1.483   1.073  0.8024  0.0384 -0.4077
 2912SOL    HW1 9328   6.247   1.539   1.017  0.0170 -1.3209 -1.0679
 2912SOL    HW2 9329   6.322   1.538   1.148 -0.3445  1.0741 -0.7989
 2913SOL     OW 9330   3.969   2.854   3.041 -0.8891 -0.2422  0.0644
 2913SOL    HW1 9331   3.913   2.853   2.963 -2.4057 -1.2209  1.1093
 2913SOL    HW2 9332   3.913   2.890   3.110  0.0550 -0.4233  0.9519
 2914SOL     OW 9333   5.983   1.011   2.830 -0.2049  0.1575  0.0085
 2914SOL    HW1 9334   5.987   1.046   2.919  0.6172 -0.4250  0.2113
 2914SOL    HW2 9335   5.893   1.025   2.803 -0.4611  0.3648  0.9312
 2915SOL     OW 9336   0.192   1.589   1.075  0.1193  0.5541  0.5237
 2915SOL    HW1 9337   0.169   1.638   1.154  1.2979 -0.1011  1.3107
 2915SOL    HW2 9338   0.239   1.512   1.108 -0.8362 -0.6162 -0.7270
 2916SOL     OW 9339   5.280   0.958   3.072 -0.0393 -0.4536  0.4532
 2916SOL    HW1 9340   5.253   0.916   2.991 -1.3503 -0.8821  1.0772
 2916SOL    HW2 9341   5.236   1.043   3.071  0.4175 -0.2176  0.4362
 2917SOL     OW 9342   6.366   1.723   0.045 -0.6682 -0.2827  0.3781
 2917SOL    HW1 9343   6.336   1.813   0.027 -0.9610 -0.4605 -0.0457
 2917SOL    HW2 9344   6.318   1.669  -0.018  3.0619 -0.2512 -2.8299
 2918SOL     OW 9345   1.877   1.905   0.182  0.2832 -0.4247 -0.5290
 2918SOL    HW1 9346   1.853   1.870   0.268  0.4615 -2.0063 -1.0937
 2918SOL    HW2 9347   1.819   1.980   0.170 -0.4826 -0.8272  0.5158
 2919SOL     OW 9348   2.373   1.974   3.142 -0.2445  0.3073  0.0424
 2919SOL    HW1 9349   2.288   1.973   3.187  0.1087 -1.4888  0.7671
 2919SOL    HW2 9350   2.358   1.922   3.063 -0.1183  1.0192 -0.4573
 2920SOL     OW 9351   6.053   0.822   2.606 -0.1055  0.1045  0.7334
 2920SOL    HW1 9352   6.037   0.875   2.684  0.1959  2.6891 -0.8437
 2920SOL    HW2 9353   6.144   0.795   2.613  0.1811  1.0597  0.9023
 2921SOL     OW 9354   0.029   4.341   0.159 -0.6030  0.9729  0.2615
 2921SOL    HW1 9355  -0.003   4.291   0.084  1.1752  1.1324 -0.6472
 2921SOL    HW2 9356  -0.026   4.419   0.160 -1.4825  0.3797 -0.0829
 2922SOL     OW 9357   4.053   0.742   0.411 -0.0976 -0.0086 -0.2797
 2922SOL    HW1 9358   3.964   0.727   0.378 -0.0470 -0.0724 -0.3857
 2922SOL    HW2 9359   4.063   0.837   0.411 -0.3676  0.0225  0.2618
 2923SOL     OW 9360   5.358   4.442   0.923  0.5705 -0.3147 -0.0098
 2923SOL    HW1 9361   5.283   4.502   0.922  0.5702 -0.1538  2.4307
 2923SOL    HW2 9362   5.322   4.358   0.895 -0.9677 -0.5960  2.5043
 2924SOL     OW 9363   2.373   2.882   2.577 -0.7115 -0.2031  0.4137
 2924SOL    HW1 9364   2.370   2.965   2.625  0.1136 -0.1312  0.3606
 2924SOL    HW2 9365   2.317   2.896   2.501 -0.7711  0.2232  0.5358
 2925SOL     OW 9366   2.997   0.676   0.751 -0.3514  0.4834  0.2202
 2925SOL    HW1 9367   2.996   0.687   0.656 -1.2214  0.7292  0.2452
 2925SOL    HW2 9368   3.028   0.760   0.785  0.6876  0.1414  0.1314
 2926SOL     OW 9369   0.020   0.155   1.867 -0.0607  0.2164  0.1745
 2926SOL    HW1 9370  -0.043   0.134   1.798  0.2572  0.4644 -0.1939
 2926SOL    HW2 9371   0.072   0.076   1.876 -0.7706 -0.1954  0.8752
 2927SOL     OW 9372   1.278   0.638   1.693 -0.1277 -0.0287  0.2647
 2927SOL    HW1 9373   1.359   0.603   1.729  0.0418 -1.2060 -1.1793
 2927SOL    HW2 9374   1.271   0.598   1.606 -1.2273  1.5946 -0.4540
 2928SOL     OW 9375   4.470   5.018   2.111  0.2936 -0.3634  0.1682
 2928SOL    HW1 9376   4.511   5.079   2.050 -0.2694 -1.8337 -1.7859
 2928SOL    HW2 9377   4.516   5.032   2.194  0.1951  2.6314 -0.1837
 2929SOL     OW 9378   3.254   4.192   2.758 -0.2493 -0.4650  0.3703
 2929SOL    HW1 9379   3.317   4.200   2.830 -1.6058 -0.1716  1.5754
 2929SOL    HW2 9380   3.306   4.201   2.679  1.3685 -1.2424  1.2984
 2930SOL     OW 9381   5.563   2.272   1.107  0.4985 -0.1694  0.4234
 2930SOL    HW1 9382   5.506   2.205   1.068  0.5113 -0.4469  0.8692
 2930SOL    HW2 9383   5.534   2.354   1.068 -2.0404  0.0975  2.5733
 2931SOL     OW 9384   4.002   3.726   3.139 -0.0038  0.5437 -0.3915
 2931SOL    HW1 9385   3.931   3.670   3.110  0.7670 -1.1007  0.7307
 2931SOL    HW2 9386   4.006   3.796   3.074 -1.2884 -0.4590 -1.6069
 2932SOL     OW 9387   0.451   2.217   1.567  0.0796 -0.3595 -1.0927
 2932SOL    HW1 9388   0.501   2.213   1.485 -0.0766 -1.7448 -1.1452
 2932SOL    HW2 9389   0.411   2.130   1.575 -1.6484  0.4320 -0.6294
 2933SOL     OW 9390   3.864   1.915   2.438  0.4931 -0.0118 -1.2261
 2933SOL    HW1 9391   3.810   1.927   2.360 -3.1771  2.1646  1.3483
 2933SOL    HW2 9392   3.940   1.973   2.424 -0.8916  1.5889 -2.5463
 2934SOL     OW 9393   5.383   2.674   2.155  0.1638 -0.4736 -0.3913
 2934SOL    HW1 9394   5.382   2.667   2.059  0.4110 -0.3031 -0.4056
 2934SOL    HW2 9395   5.361   2.765   2.172 -0.3422 -0.6142 -0.2720
 2935SOL     OW 9396   0.854   0.940   3.139  0.1792  0.4598  0.3440
 2935SOL    HW1 9397   0.873   0.853   3.103  2.3987  1.1795 -0.3378
 2935SOL    HW2 9398   0.772   0.966   3.096 -1.1079 -1.6547  1.3227
 2936SOL     OW 9399   0.976   0.471   1.637 -0.0267  0.0411 -0.1169
 2936SOL    HW1 9400   1.050   0.469   1.577  1.0995 -1.5621  1.2508
 2936SOL    HW2 9401   0.976   0.385   1.679 -1.8416  0.4868  0.9179
 2937SOL     OW 9402   6.872   2.273   1.194  0.4244  0.1693  0.0688
 2937SOL    HW1 9403   6.874   2.202   1.258 -1.8866  0.0901  0.1246
 2937SOL    HW2 9404   6.828   2.345   1.240 -0.1184  0.5422 -1.0106
 2938SOL     OW 9405   0.412   4.835   1.729  0.0146  0.3038 -0.2701
 2938SOL    HW1 9406   0.505   4.815   1.742  1.0241  3.7090 -1.3819
 2938SOL    HW2 9407   0.398   4.916   1.778 -2.2320  0.2164 -0.6749
 2939SOL     OW 9408   5.515   2.323   1.711  0.1846  0.5677 -0.1063
 2939SOL    HW1 9409   5.606   2.291   1.716  0.5926  1.8281  2.7398
 2939SOL    HW2 9410   5.521   2.401   1.657  0.7334  0.4709 -0.1984
 2940SOL     OW 9411   4.450   3.541   1.862  0.3844  0.0204  0.4116
 2940SOL    HW1 9412   4.431   3.632   1.837  1.5101 -0.3521 -2.0028
 2940SOL    HW2 9413   4.418   3.535   1.952 -1.2270  2.3296  0.0978
 2941SOL     OW 9414   3.606   0.315   3.290  0.0139  0.1394  0.3939
 2941SOL    HW1 9415   3.569   0.325   3.203 -0.9602  2.3924  1.0125
 2941SOL    HW2 9416   3.666   0.389   3.299  1.5068 -1.0737  1.0162
 2942SOL     OW 9417   0.217   3.347   0.110 -0.7179 -0.2936  0.0868
 2942SOL    HW1 9418   0.162   3.426   0.112 -0.7633 -0.2760 -1.1759
 2942SOL    HW2 9419   0.160   3.278   0.076 -0.9872 -1.1618  2.1521
 2943SOL     OW 9420   4.874   1.524   1.098  0.5550  0.3410  0.4179
 2943SOL    HW1 9421   4.835   1.535   1.011  0.8646 -0.5075  0.1633
 2943SOL    HW2 9422   4.930   1.446   1.090  1.1657  0.6907  1.1768
 2944SOL     OW 9423   5.917   3.851   3.475 -0.1350  0.3617 -0.1016
 2944SOL    HW1 9424   6.013   3.853   3.473 -0.1407  0.4270 -0.5565
 2944SOL    HW2 9425   5.892   3.942   3.459 -0.2840 -0.0304 -2.3909
 2945SOL     OW 9426   4.007   2.731   0.090 -0.2592  0.4345  0.3812
 2945SOL    HW1 9427   4.006   2.702  -0.002  1.4583 -1.4072  0.8740
 2945SOL    HW2 9428   3.922   2.705   0.124 -0.1431 -0.7495 -0.1733
 2946SOL     OW 9429   6.331   4.621   1.507 -0.0239  0.2362  0.1491
 2946SOL    HW1 9430   6.332   4.526   1.515 -2.0021 -0.0638 -2.1633
 2946SOL    HW2 9431   6.419   4.644   1.479  0.3571 -0.9585  0.3173
 2947SOL     OW 9432   6.888   0.648   1.020  0.0422 -0.0971  0.2433
 2947SOL    HW1 9433   6.833   0.589   1.070 -2.2491  0.7546 -1.1120
 2947SOL    HW2 9434   6.826   0.700   0.968  2.1823 -0.7578 -3.2993
 2948SOL     OW 9435   3.987   2.532   3.080  0.0574 -0.0000 -0.4562
 2948SOL    HW1 9436   3.974   2.588   3.157 -0.3692 -1.0731  0.2904
 2948SOL    HW2 9437   4.081   2.513   3.080  0.0567 -0.0135 -0.1823
 2949SOL     OW 9438   0.566   2.213   2.629 -0.3066  0.0838  0.4635
 2949SOL    HW1 9439   0.598   2.140   2.575 -1.3299 -0.6668  0.8553
 2949SOL    HW2 9440   0.505   2.259   2.572  0.8594  1.0788 -0.0269
 2950SOL     OW 9441   7.308   0.824   1.087  0.3390  0.7340  0.1141
 2950SOL    HW1 9442   7.220   0.824   1.124 -0.6067 -1.0372 -1.9072
 2950SOL    HW2 9443   7.295   0.832   0.992  2.2964 -0.0424 -0.2798
 2951SOL     OW 9444   3.543   5.008   1.724 -0.3145 -0.4454 -0.6172
 2951SOL    HW1 9445   3.633   4.978   1.733 -0.4497 -0.8184 -0.4991
 2951SOL    HW2 9446   3.551   5.099   1.694  0.1553  0.6183  2.3641
 2952SOL     OW 9447   2.315   2.138   2.878 -0.2694  0.3464 -0.6060
 2952SOL    HW1 9448   2.234   2.189   2.888 -0.6583 -0.3169 -0.2308
 2952SOL    HW2 9449   2.369   2.165   2.952  0.1273  1.2711 -1.2248
 2953SOL     OW 9450   2.395   2.324   1.843  0.0521 -0.2739 -0.4339
 2953SOL    HW1 9451   2.355   2.241   1.816 -1.2107 -0.2357  1.1663
 2953SOL    HW2 9452   2.413   2.313   1.936  1.2037  0.7666 -0.5013
 2954SOL     OW 9453   4.521   3.604   0.138 -0.0133 -0.4548 -0.2380
 2954SOL    HW1 9454   4.565   3.529   0.099 -1.4256 -1.5049  0.0925
 2954SOL    HW2 9455   4.447   3.621   0.081  0.9726  1.5580 -1.0221
 2955SOL     OW 9456   0.412   0.486   3.334 -0.2731 -0.1172  0.4219
 2955SOL    HW1 9457   0.355   0.439   3.273 -1.2338  1.7803 -0.1963
 2955SOL    HW2 9458   0.491   0.431   3.339 -0.7553 -1.0642 -1.3682
 2956SOL     OW 9459   5.479   3.450   2.162  0.3371  0.2097 -0.1040
 2956SOL    HW1 9460   5.452   3.366   2.125 -0.3759  1.0820 -1.6260
 2956SOL    HW2 9461   5.437   3.452   2.249 -1.2456 -0.1927 -0.8274
 2957SOL     OW 9462   0.944   4.422   3.182 -0.2030 -0.2547  0.3989
 2957SOL    HW1 9463   0.957   4.333   3.148 -1.1429 -0.4314  0.4708
 2957SOL    HW2 9464   0.920   4.409   3.274 -0.1884  0.0840  0.4518
 2958SOL     OW 9465   1.865   3.022   0.838  0.2154 -0.2516 -0.0800
 2958SOL    HW1 9466   1.896   3.024   0.929 -0.3390  0.1291  0.1051
 2958SOL    HW2 9467   1.858   2.929   0.818 -0.6049 -0.3510  0.6057
 2959SOL     OW 9468   0.696   0.830   1.281  0.0365 -0.2111  0.0209
 2959SOL    HW1 9469   0.786   0.852   1.255 -0.0804 -0.0106 -0.2115
 2959SOL    HW2 9470   0.680   0.883   1.359  0.7358 -1.5266  1.1288
 2960SOL     OW 9471   2.912   3.256   1.824  0.2959  0.3408  0.7020
 2960SOL    HW1 9472   2.840   3.217   1.774  1.3945 -0.9315  0.0465
 2960SOL    HW2 9473   2.916   3.346   1.795 -0.9858  0.4240  0.7140
 2961SOL     OW 9474   3.868   4.758   0.119  0.6502  0.0925 -0.2188
 2961SOL    HW1 9475   3.915   4.803   0.189 -1.4131  1.4219  0.4109
 2961SOL    HW2 9476   3.845   4.673   0.156  2.5872 -0.6425 -0.5918
 2962SOL     OW 9477   4.636   5.024   0.472 -0.1322  0.4731  0.0190
 2962SOL    HW1 9478   4.716   4.974   0.483 -0.0560  0.6644  0.3700
 2962SOL    HW2 9479   4.567   4.958   0.467 -0.1398  0.3382  1.4303
 2963SOL     OW 9480   5.383   4.124   3.307 -0.4991 -0.2267  0.4749
 2963SOL    HW1 9481   5.456   4.166   3.262 -0.5173  2.6620  2.8079
 2963SOL    HW2 9482   5.424   4.066   3.372 -0.3589 -0.7393 -0.0707
 2964SOL     OW 9483   6.746   4.191   1.086 -0.3627  0.0343  0.2661
 2964SOL    HW1 9484   6.740   4.250   1.011 -1.5752  0.7400  0.8824
 2964SOL    HW2 9485   6.825   4.219   1.132 -0.5278  0.7091  0.1519
 2965SOL     OW 9486   2.407   4.539   2.924  0.4340 -0.3010 -0.3835
 2965SOL    HW1 9487   2.440   4.563   3.010  2.2582 -1.0028 -0.8340
 2965SOL    HW2 9488   2.354   4.461   2.940  1.3097 -0.8276  0.0416
 2966SOL     OW 9489   7.353   2.190   1.020  0.5436  0.4746  0.4704
 2966SOL    HW1 9490   7.375   2.099   1.001 -0.7360  0.4972 -1.3701
 2966SOL    HW2 9491   7.345   2.194   1.115  1.1473 -1.1846  0.6180
 2967SOL     OW 9492   3.610   4.408   3.377 -0.1706 -0.3236 -0.2732
 2967SOL    HW1 9493   3.704   4.423   3.383 -0.2890  0.1240  0.8387
 2967SOL    HW2 9494   3.599   4.315   3.397 -0.0526 -0.0956  0.9196
 2968SOL     OW 9495   5.611   3.673   1.649  0.5074 -0.5835 -0.6615
 2968SOL    HW1 9496   5.688   3.664   1.594  0.0403 -1.6016 -1.1849
 2968SOL    HW2 9497   5.646   3.686   1.737  1.2605  1.8337 -1.2526
 2969SOL     OW 9498   5.373   2.269   2.061  0.3008  0.1492 -0.1944
 2969SOL    HW1 9499   5.461   2.298   2.037  0.7892 -0.0119  1.2886
 2969SOL    HW2 9500   5.375   2.263   2.157 -1.2862  0.0056 -0.1407
 2970SOL     OW 9501   1.162   0.738   3.224  0.0206  0.1713  0.6326
 2970SOL    HW1 9502   1.087   0.719   3.167  0.7774 -1.9428  0.2327
 2970SOL    HW2 9503   1.123   0.776   3.303 -1.2393  1.2106 -0.4526
 2971SOL     OW 9504   6.005   2.089   1.329  0.7907  0.0152 -0.5840
 2971SOL    HW1 9505   5.994   1.999   1.359  1.8207 -0.1596 -0.6912
 2971SOL    HW2 9506   6.091   2.115   1.362  0.2411  1.1977  0.0069
 2972SOL     OW 9507   5.260   5.199   0.707 -0.3924  0.0777  0.0175
 2972SOL    HW1 9508   5.321   5.234   0.642 -1.2307  0.6368 -0.4803
 2972SOL    HW2 9509   5.310   5.200   0.789 -0.1907  1.8955 -0.0914
 2973SOL     OW 9510   1.663   2.815   2.730  0.0176 -0.1941 -0.1150
 2973SOL    HW1 9511   1.751   2.839   2.757 -0.1218 -0.1104  0.2571
 2973SOL    HW2 9512   1.641   2.738   2.783  0.2508 -0.8255 -0.9083
 2974SOL     OW 9513   4.324   4.743   3.188  0.2957  0.1488  0.0559
 2974SOL    HW1 9514   4.258   4.730   3.119 -0.6199 -0.3170  0.9859
 2974SOL    HW2 9515   4.284   4.806   3.247 -1.2521 -3.0839  2.8457
 2975SOL     OW 9516   4.791   4.884   2.636  0.0035  0.1087 -0.4301
 2975SOL    HW1 9517   4.876   4.910   2.671  0.1365  0.4205 -0.9690
 2975SOL    HW2 9518   4.805   4.879   2.541 -0.0865 -1.6264 -0.3933
 2976SOL     OW 9519   0.325   0.272   2.014 -0.1565  0.2995 -0.6217
 2976SOL    HW1 9520   0.336   0.226   2.097 -0.7301 -2.0701 -1.7570
 2976SOL    HW2 9521   0.408   0.317   2.000  0.7056 -0.9324  0.2798
 2977SOL     OW 9522   3.913   4.272   1.525  0.0924  0.3722 -0.3191
 2977SOL    HW1 9523   3.819   4.284   1.538  0.3723  1.6379  0.7172
 2977SOL    HW2 9524   3.953   4.343   1.574  1.6146 -0.3576 -0.4521
 2978SOL     OW 9525   5.384   0.709   2.806  0.1475 -0.2516 -0.2974
 2978SOL    HW1 9526   5.335   0.791   2.819  0.8566 -0.1736  2.5480
 2978SOL    HW2 9527   5.335   0.644   2.857  1.4638 -0.8174  0.2690
 2979SOL     OW 9528   3.032   4.916   3.239 -0.3110  0.4821 -0.0267
 2979SOL    HW1 9529   3.120   4.948   3.218 -0.3640 -0.1597 -1.2983
 2979SOL    HW2 9530   2.979   4.996   3.246  0.6770  1.0264  2.5660
 2980SOL     OW 9531   4.018   1.513   3.421 -0.7180  0.2326 -0.2759
 2980SOL    HW1 9532   4.098   1.509   3.368 -2.2281 -1.0873 -2.6169
 2980SOL    HW2 9533   3.980   1.598   3.400  0.3840  1.2239  1.4707
 2981SOL     OW 9534   3.301   5.179   2.946 -0.7452 -0.3627  0.2135
 2981SOL    HW1 9535   3.370   5.132   2.899 -0.5596  1.0675 -0.9972
 2981SOL    HW2 9536   3.348   5.240   3.003 -0.9718  1.1738 -1.1925
 2982SOL     OW 9537   6.137   3.568   2.499  0.1388  0.3367  0.3075
 2982SOL    HW1 9538   6.198   3.529   2.436  1.0664 -0.1141  1.4635
 2982SOL    HW2 9539   6.133   3.506   2.571 -1.2578  0.6404  0.5244
 2983SOL     OW 9540   7.296   2.155   0.633  0.3356  0.6650  0.4181
 2983SOL    HW1 9541   7.259   2.099   0.702 -0.2069  0.7491  0.2060
 2983SOL    HW2 9542   7.305   2.098   0.557 -0.8300  0.9948  0.0042
 2984SOL     OW 9543   4.683   4.318   2.890  0.6281  0.1620  0.3067
 2984SOL    HW1 9544   4.748   4.340   2.823  1.0316  1.0546  0.9737
 2984SOL    HW2 9545   4.734   4.290   2.965  0.2325  0.4634  0.6944
 2985SOL     OW 9546   4.609   1.668   2.793 -0.0492 -0.0060  0.3676
 2985SOL    HW1 9547   4.700   1.642   2.780 -0.0494  1.1335 -2.5199
 2985SOL    HW2 9548   4.602   1.684   2.887  2.6120 -0.4385  0.7125
 2986SOL     OW 9549   0.046   0.668   0.003 -0.6899  0.7987  0.6108
 2986SOL    HW1 9550  -0.020   0.600   0.007 -0.4853  0.4201 -1.4882
 2986SOL    HW2 9551  -0.002   0.748  -0.019 -0.6819  0.9263  1.0479
 2987SOL     OW 9552   2.250   2.589   1.872 -0.0466 -0.0194 -0.1329
 2987SOL    HW1 9553   2.252   2.496   1.848  0.4394 -0.2028  0.5849
 2987SOL    HW2 9554   2.338   2.607   1.904 -0.3673  0.4833  0.4917
 2988SOL     OW 9555   5.864   1.231   0.403  0.1255  0.8885 -0.2953
 2988SOL    HW1 9556   5.908   1.211   0.320  0.7844  3.0356 -0.5196
 2988SOL    HW2 9557   5.935   1.234   0.467 -0.1984  0.7090  0.0778
 2989SOL     OW 9558   5.075   1.088   3.340 -0.2628 -0.1762  0.5500
 2989SOL    HW1 9559   5.064   1.011   3.395  0.8932  1.1905  2.8468
 2989SOL    HW2 9560   5.125   1.149   3.394  0.1938  1.6107 -1.7406
 2990SOL     OW 9561   3.554   5.020   2.331  0.0226 -0.1832  0.5647
 2990SOL    HW1 9562   3.632   4.973   2.364  0.2597 -0.6803 -0.6584
 2990SOL    HW2 9563   3.509   4.956   2.276 -0.2344  0.6929 -0.2691
 2991SOL     OW 9564   0.569   0.703   2.024  0.2682  0.6015  0.0488
 2991SOL    HW1 9565   0.521   0.668   1.950 -1.5454 -0.4145  1.6326
 2991SOL    HW2 9566   0.536   0.793   2.034 -2.1159 -0.3631  1.6658
 2992SOL     OW 9567   1.144   1.832   1.996 -0.1278 -0.4418 -0.0523
 2992SOL    HW1 9568   1.132   1.855   2.088  1.9258  1.3631 -0.1422
 2992SOL    HW2 9569   1.200   1.754   1.998  0.8156  0.2204  0.2723
 2993SOL     OW 9570   6.809   0.390   2.948  0.8506  0.1506  0.0862
 2993SOL    HW1 9571   6.730   0.404   2.896  0.7988 -1.4989 -0.3206
 2993SOL    HW2 9572   6.823   0.474   2.993 -0.2382  0.9592 -1.0216
 2994SOL     OW 9573   6.076   0.198   0.297 -0.8570  0.1555  0.0875
 2994SOL    HW1 9574   6.120   0.162   0.374 -0.4043 -0.1647 -0.3163
 2994SOL    HW2 9575   5.999   0.144   0.285  1.0211 -2.2903 -1.9229
 2995SOL     OW 9576   6.763   4.488   0.977 -0.2998 -0.0723 -0.7415
 2995SOL    HW1 9577   6.771   4.554   1.045 -1.5584 -1.0839  0.4498
 2995SOL    HW2 9578   6.681   4.509   0.932 -0.4606 -0.5322 -0.6718
 2996SOL     OW 9579   1.335   1.321   2.733 -1.0378 -0.0246 -0.2312
 2996SOL    HW1 9580   1.326   1.390   2.798 -0.8471 -1.0965  0.9872
 2996SOL    HW2 9581   1.256   1.268   2.743 -0.0422 -1.4365  0.6872
 2997SOL     OW 9582   3.197   4.281   1.814  0.2807 -0.2209 -0.5596
 2997SOL    HW1 9583   3.284   4.258   1.782  1.9649  2.9575  1.2315
 2997SOL    HW2 9584   3.198   4.376   1.820 -2.3296 -0.2052  2.1052
 2998SOL     OW 9585   3.258   0.073   0.073 -0.0209  0.2709 -0.0019
 2998SOL    HW1 9586   3.295   0.115  -0.005 -1.2967 -0.0713 -0.8379
 2998SOL    HW2 9587   3.172   0.041   0.044 -0.2902 -0.3639  1.4022
 2999SOL     OW 9588   4.709   4.989   0.743 -0.2705 -0.1012  1.1059
 2999SOL    HW1 9589   4.672   5.012   0.658 -0.6372 -0.3788  1.1906
 2999SOL    HW2 9590   4.644   4.932   0.783  0.6095 -1.3056  0.8957
 3000SOL     OW 9591   3.220   1.150   3.191 -0.3932 -0.4856 -0.6666
 3000SOL    HW1 9592   3.196   1.078   3.249 -1.5566 -1.4984 -2.3429
 3000SOL    HW2 9593   3.156   1.147   3.120  1.2816  0.3906 -2.2905
 3001SOL     OW 9594   2.806   4.143   1.213  0.6992  0.0543 -0.4637
 3001SOL    HW1 9595   2.719   4.164   1.249  1.2449 -0.1012  1.0136
 3001SOL    HW2 9596   2.790   4.129   1.120 -1.0999 -1.1638 -0.0436
 3002SOL     OW 9597   2.793   4.515   2.563  0.4458  0.6594 -0.3235
 3002SOL    HW1 9598   2.850   4.568   2.618 -1.7313  1.3028  1.4632
 3002SOL    HW2 9599   2.781   4.434   2.613 -1.0341  0.9868 -0.0919
 3003SOL     OW 9600   5.855   1.214   3.328 -0.2006  0.6134 -0.5288
 3003SOL    HW1 9601   5.838   1.194   3.420  0.4243  0.3184 -0.4723
 3003SOL    HW2 9602   5.910   1.292   3.331 -0.7917  1.0488 -0.6840
 3004SOL     OW 9603   0.056   3.427   2.508 -0.0406  0.0013 -0.5252
 3004SOL    HW1 9604  -0.014   3.375   2.470  0.8196 -1.0713 -0.6918
 3004SOL    HW2 9605   0.135   3.374   2.495  0.6079  0.5930  0.8074
 3005SOL     OW 9606   5.301   0.361   2.486  0.4450 -0.3454  0.1712
 3005SOL    HW1 9607   5.361   0.292   2.457  0.4646 -0.0227 -0.5675
 3005SOL    HW2 9608   5.358   0.430   2.521  0.4738 -0.2840  0.0023
 3006SOL     OW 9609   6.235   1.524   2.001 -0.6607 -0.3117 -0.4650
 3006SOL    HW1 9610   6.290   1.494   1.928 -1.3682  0.3049 -1.2766
 3006SOL    HW2 9611   6.148   1.488   1.982 -1.1723  0.9648 -0.6687
 3007SOL     OW 9612   5.103   0.464   0.893  0.1875  0.2005 -0.3962
 3007SOL    HW1 9613   5.124   0.508   0.975 -1.0818 -0.9400  0.5878
 3007SOL    HW2 9614   5.095   0.372   0.917 -1.7020  0.0421 -1.4708
 3008SOL     OW 9615   1.299   3.045   2.926  0.5890 -0.2700  1.1080
 3008SOL    HW1 9616   1.295   2.953   2.900 -2.9143 -0.1023  0.6608
 3008SOL    HW2 9617   1.263   3.093   2.852 -1.1376  1.0800  2.7203
 3009SOL     OW 9618   2.903   0.747   3.272 -0.1725 -0.6698  0.2690
 3009SOL    HW1 9619   2.946   0.675   3.319  0.0261 -0.7179  0.0154
 3009SOL    HW2 9620   2.876   0.709   3.188 -0.2518 -0.5029  0.2175
 3010SOL     OW 9621   6.901   1.139   0.795 -0.1866 -0.1926 -0.8649
 3010SOL    HW1 9622   6.855   1.113   0.875  0.7009 -2.0026 -0.8841
 3010SOL    HW2 9623   6.857   1.090   0.725 -0.3889  0.6949 -1.3764
 3011SOL     OW 9624   6.560   3.458   3.200  1.0689  0.5367  0.3048
 3011SOL    HW1 9625   6.514   3.376   3.216 -0.0649  0.5841 -2.2981
 3011SOL    HW2 9626   6.648   3.431   3.175  0.7196  0.1108 -0.4791
 3012SOL     OW 9627   6.534   3.531   2.164 -0.0033 -0.3648 -0.1765
 3012SOL    HW1 9628   6.563   3.585   2.237  1.2584 -0.4180 -0.6115
 3012SOL    HW2 9629   6.504   3.594   2.098 -1.8910 -0.3415  0.6581
 3013SOL     OW 9630   0.491   4.763   2.826  0.1605  0.2602  0.7517
 3013SOL    HW1 9631   0.493   4.795   2.916  0.3489 -0.4688  1.0130
 3013SOL    HW2 9632   0.581   4.737   2.807 -0.2771 -1.7377  1.1617
 3014SOL     OW 9633   4.181   3.408   2.844  0.8814 -0.3828  0.3801
 3014SOL    HW1 9634   4.137   3.326   2.865  1.2419 -0.7534 -0.2850
 3014SOL    HW2 9635   4.195   3.449   2.929 -1.2162  0.0152  0.5903
 3015SOL     OW 9636   4.917   5.002   2.016 -0.5261  0.0666 -0.1709
 3015SOL    HW1 9637   4.879   4.954   2.089  1.3361 -1.5896 -0.1945
 3015SOL    HW2 9638   4.890   5.093   2.030 -1.5455 -0.4740  1.6727
 3016SOL     OW 9639   6.552   1.826   3.315 -0.2915 -0.0419 -0.3007
 3016SOL    HW1 9640   6.481   1.855   3.258 -2.2714 -0.2823  1.8973
 3016SOL    HW2 9641   6.572   1.902   3.369 -0.9202 -0.7754  1.0131
 3017SOL     OW 9642   3.976   4.266   3.106 -0.4972 -0.6522  0.1125
 3017SOL    HW1 9643   4.044   4.316   3.151  0.6855 -2.0838 -0.0114
 3017SOL    HW2 9644   3.896   4.316   3.120  0.3738  0.4851  1.2370
 3018SOL     OW 9645   6.765   4.749   1.161 -1.1342 -0.0206  0.6371
 3018SOL    HW1 9646   6.793   4.839   1.177  2.1939 -0.8263 -0.0386
 3018SOL    HW2 9647   6.670   4.753   1.170 -1.3124  3.8228 -0.6312
 3019SOL     OW 9648   5.886   2.154   2.049 -0.4213 -0.3597  0.0989
 3019SOL    HW1 9649   5.856   2.091   1.984 -1.9592  0.7188 -0.2976
 3019SOL    HW2 9650   5.906   2.102   2.126  1.3684 -1.6561 -1.1856
 3020SOL     OW 9651   1.091   4.862   0.329  0.1435 -1.0138 -0.2934
 3020SOL    HW1 9652   1.014   4.914   0.307  0.7534 -0.4770 -1.2731
 3020SOL    HW2 9653   1.113   4.887   0.419  1.3543  1.7031 -1.2256
 3021SOL     OW 9654   5.009   1.063   2.078 -0.1387 -0.1793 -0.0653
 3021SOL    HW1 9655   5.040   1.083   2.167 -1.3604  1.0008  0.1308
 3021SOL    HW2 9656   5.046   1.133   2.024 -3.4819  2.2334  0.4276
 3022SOL     OW 9657   0.773   4.351   1.708 -0.2397 -0.0451  0.0051
 3022SOL    HW1 9658   0.813   4.436   1.688  0.2507 -0.3889 -0.5269
 3022SOL    HW2 9659   0.829   4.314   1.776 -1.4832  0.8070  1.5568
 3023SOL     OW 9660   3.155   5.066   1.574  0.1400  0.1921  0.3526
 3023SOL    HW1 9661   3.117   5.068   1.662  0.5351  0.1439  0.5248
 3023SOL    HW2 9662   3.117   5.142   1.530 -1.2602 -0.6316  0.0583
 3024SOL     OW 9663   2.142   3.843   2.847  0.8773  0.1245  0.5507
 3024SOL    HW1 9664   2.099   3.924   2.820  0.4122  0.4219  2.0573
 3024SOL    HW2 9665   2.108   3.776   2.787  0.1004  0.7802  0.2460
 3025SOL     OW 9666   1.133   1.046   0.984  0.5770 -0.1999 -0.2453
 3025SOL    HW1 9667   1.092   1.110   0.926 -0.0054 -0.0318  0.3402
 3025SOL    HW2 9668   1.191   1.098   1.040 -2.4634  0.4733  2.6506
 3026SOL     OW 9669   6.156   2.491   1.726  0.3119  0.5563 -0.0896
 3026SOL    HW1 9670   6.128   2.421   1.785  1.0364 -0.3689 -0.8048
 3026SOL    HW2 9671   6.198   2.555   1.784 -0.8913  0.7145  0.6503
 3027SOL     OW 9672   5.756   3.706   0.769 -0.8584 -0.0545 -0.3000
 3027SOL    HW1 9673   5.842   3.729   0.804 -0.9826  1.7982 -1.1165
 3027SOL    HW2 9674   5.696   3.769   0.809 -1.9422 -1.5485  0.5484
 3028SOL     OW 9675   4.131   1.880   3.146 -0.1858 -0.0243  0.3615
 3028SOL    HW1 9676   4.159   1.965   3.179 -0.5617  0.4185 -0.4176
 3028SOL    HW2 9677   4.167   1.817   3.208  3.7927  0.3492 -1.2287
 3029SOL     OW 9678   2.803   2.951   0.781  0.0016  0.7292 -0.6787
 3029SOL    HW1 9679   2.809   2.884   0.849  0.1910  0.5971 -0.8266
 3029SOL    HW2 9680   2.812   2.903   0.699 -1.1149  0.7567 -0.8443
 3030SOL     OW 9681   6.392   4.483   0.133  0.7140  0.5335  0.2597
 3030SOL    HW1 9682   6.464   4.422   0.149  1.2193  1.1238  0.2778
 3030SOL    HW2 9683   6.433   4.557   0.087 -0.3048 -0.1991 -1.9978
 3031SOL     OW 9684   0.976   4.138   3.477  0.6290  0.6650 -0.5623
 3031SOL    HW1 9685   0.917   4.108   3.408 -0.4017  1.3750 -0.0157
 3031SOL    HW2 9686   1.028   4.061   3.499 -2.1158 -0.8921  1.0008
 3032SOL     OW 9687   4.241   1.559   3.283  0.0305 -0.2525  0.4103
 3032SOL    HW1 9688   4.320   1.514   3.314 -0.5175 -2.2615 -0.8984
 3032SOL    HW2 9689   4.244   1.548   3.188 -0.9467  1.1909  0.1918
 3033SOL     OW 9690   5.704   5.323   3.131  0.2076  0.2682  0.5433
 3033SOL    HW1 9691   5.720   5.356   3.042 -0.7071 -0.6249  0.0229
 3033SOL    HW2 9692   5.753   5.383   3.188 -1.1139  2.3326 -0.3639
 3034SOL     OW 9693   5.833   3.123   0.870 -0.0109  0.5894 -0.4361
 3034SOL    HW1 9694   5.895   3.107   0.800 -0.0919 -1.3417 -0.1235
 3034SOL    HW2 9695   5.749   3.093   0.836 -0.0167 -0.5681  0.5028
 3035SOL     OW 9696   6.904   1.722   0.088  1.2558 -0.2478  0.2397
 3035SOL    HW1 9697   6.890   1.724  -0.007  2.2895 -0.4247  0.0715
 3035SOL    HW2 9698   6.874   1.807   0.119  0.3117 -0.4268 -0.1508
 3036SOL     OW 9699   0.631   2.433   2.778  0.7139 -0.2751 -0.5431
 3036SOL    HW1 9700   0.554   2.470   2.822  1.0847 -0.1567  0.0075
 3036SOL    HW2 9701   0.616   2.339   2.780  1.5103 -0.3935  1.3293
 3037SOL     OW 9702   1.358   3.312   1.752  0.1311 -0.3890  0.2045
 3037SOL    HW1 9703   1.316   3.310   1.838 -1.8025 -1.4642 -0.6808
 3037SOL    HW2 9704   1.350   3.403   1.723  0.7083 -0.0430  1.0964
 3038SOL     OW 9705   5.046   4.608   0.428  0.6744  0.5467  0.2734
 3038SOL    HW1 9706   4.964   4.637   0.390 -0.1248 -1.1539  0.6258
 3038SOL    HW2 9707   5.092   4.564   0.356  0.9346  0.7942  0.2833
 3039SOL     OW 9708   4.497   2.249   1.861  0.0147  0.0524 -0.6632
 3039SOL    HW1 9709   4.573   2.265   1.805 -0.8657  1.7542 -1.4588
 3039SOL    HW2 9710   4.534   2.247   1.950  0.9884  1.0665 -1.0093
 3040SOL     OW 9711   4.797   0.354   1.741  0.5949 -0.3458 -0.1613
 3040SOL    HW1 9712   4.702   0.360   1.728  0.9086  1.1429 -2.2258
 3040SOL    HW2 9713   4.820   0.267   1.710  0.3672  0.7396 -3.8326
 3041SOL     OW 9714   6.245   0.198   1.955  0.1319 -0.5126 -0.2996
 3041SOL    HW1 9715   6.234   0.292   1.970  0.8265 -0.6709  1.3897
 3041SOL    HW2 9716   6.160   0.169   1.921 -0.0141  0.7501 -1.0745
 3042SOL     OW 9717   3.520   0.086   0.397  0.2589 -0.0851  0.1511
 3042SOL    HW1 9718   3.481   0.149   0.337 -0.3590 -0.3422  0.2745
 3042SOL    HW2 9719   3.537   0.135   0.477  1.7269  0.4332 -0.4416
 3043SOL     OW 9720   3.196   3.741   3.460  0.4158 -0.5542 -0.3845
 3043SOL    HW1 9721   3.242   3.755   3.377 -1.0055  0.8877 -0.9861
 3043SOL    HW2 9722   3.265   3.740   3.526  1.3942  0.8805 -1.3189
 3044SOL     OW 9723   0.846   2.392   2.062 -0.9298  0.2705  0.4788
 3044SOL    HW1 9724   0.887   2.468   2.105  0.2885 -0.2804  0.3336
 3044SOL    HW2 9725   0.769   2.374   2.115 -0.7838  1.1036  1.0036
 3045SOL     OW 9726   2.284   3.118   3.109 -0.0102 -0.1057 -0.2834
 3045SOL    HW1 9727   2.204   3.160   3.140 -1.7140 -1.9560 -1.9149
 3045SOL    HW2 9728   2.312   3.170   3.034  2.3437  2.5182  2.1964
 3046SOL     OW 9729   2.282   1.068   2.010 -0.0137 -0.0080 -0.2303
 3046SOL    HW1 9730   2.282   1.039   1.919 -1.5452 -0.6785 -0.0375
 3046SOL    HW2 9731   2.249   1.158   2.006 -0.7171 -0.2666 -0.2765
 3047SOL     OW 9732   3.293   0.647   2.956 -0.3575  0.2075  0.1191
 3047SOL    HW1 9733   3.294   0.731   2.910 -2.2851 -0.9791 -2.2969
 3047SOL    HW2 9734   3.271   0.582   2.889 -0.0394 -2.1342  2.1065
 3048SOL     OW 9735   1.376   3.994   0.871 -0.7508 -0.5647  0.3914
 3048SOL    HW1 9736   1.430   3.950   0.806  1.7209  2.5322  0.1704
 3048SOL    HW2 9737   1.295   4.016   0.824  0.0352 -0.4278 -0.9399
 3049SOL     OW 9738   1.817   4.163   3.080 -0.4361 -0.0614 -0.6348
 3049SOL    HW1 9739   1.729   4.200   3.081 -0.3725  0.0853 -0.2222
 3049SOL    HW2 9740   1.859   4.204   3.004 -0.0990  1.3835  0.2823
 3050SOL     OW 9741   0.606   1.438   3.254 -0.0397  0.2027  0.6978
 3050SOL    HW1 9742   0.700   1.440   3.273  0.0569 -0.2149  0.2932
 3050SOL    HW2 9743   0.566   1.490   3.324  0.5068  0.5154  0.7853
 3051SOL     OW 9744   3.848   4.244   1.205  0.3687  0.9025 -0.2511
 3051SOL    HW1 9745   3.813   4.319   1.253  0.8190  1.1083 -0.2382
 3051SOL    HW2 9746   3.809   4.168   1.247 -0.8167  1.1508 -0.8473
 3052SOL     OW 9747   3.965   2.484   2.365 -0.0873  0.4855  0.2897
 3052SOL    HW1 9748   3.990   2.495   2.273 -0.5277  0.5573  0.1760
 3052SOL    HW2 9749   4.044   2.505   2.414 -0.0640  1.2135 -0.0458
 3053SOL     OW 9750   5.622   3.081   2.329  0.5440  0.2878  0.3762
 3053SOL    HW1 9751   5.627   3.000   2.380 -1.8332  0.3135  0.7473
 3053SOL    HW2 9752   5.599   3.148   2.394  0.2340  0.8383 -0.2999
 3054SOL     OW 9753   0.711   2.715   2.180  0.1898  0.0955  0.2456
 3054SOL    HW1 9754   0.693   2.623   2.201  0.7658  0.2039  1.2786
 3054SOL    HW2 9755   0.798   2.714   2.141 -0.9919 -0.1437 -2.6106
 3055SOL     OW 9756   2.793   0.897   0.751  0.3518 -0.1460  0.2750
 3055SOL    HW1 9757   2.745   0.956   0.693 -0.7731  0.0226  1.3233
 3055SOL    HW2 9758   2.738   0.819   0.757 -0.6005  0.5897  2.5952
 3056SOL     OW 9759   5.081   0.879   2.406  0.5078  0.0255 -0.0249
 3056SOL    HW1 9760   5.176   0.878   2.401  0.7164  0.4527  2.6251
 3056SOL    HW2 9761   5.061   0.948   2.469 -1.5919  0.1295 -0.7325
 3057SOL     OW 9762   6.191   3.816   3.343 -0.1552 -0.1225 -0.0873
 3057SOL    HW1 9763   6.235   3.734   3.368 -0.7676  0.0974  1.8597
 3057SOL    HW2 9764   6.210   3.825   3.250  3.7047 -0.2104  0.5090
 3058SOL     OW 9765   1.571   5.226   0.429 -0.4412  0.1289  0.9460
 3058SOL    HW1 9766   1.560   5.282   0.506 -0.6514  1.3417  0.0689
 3058SOL    HW2 9767   1.491   5.175   0.423 -0.5367  0.2319  1.3727
 3059SOL     OW 9768   2.942   3.600   1.520  0.0640 -0.1595 -0.6459
 3059SOL    HW1 9769   3.022   3.642   1.491  1.0846 -2.4382 -1.4094
 3059SOL    HW2 9770   2.874   3.634   1.463  0.5697  1.3800 -0.3675
 3060SOL     OW 9771   6.473   1.306   2.898 -0.2401  0.6295  0.0026
 3060SOL    HW1 9772   6.381   1.320   2.920 -0.1809  0.1379  0.6043
 3060SOL    HW2 9773   6.487   1.213   2.916  0.3668  0.6974 -0.1175
 3061SOL     OW 9774   2.322   2.435   1.550 -0.2551  0.6932  0.2029
 3061SOL    HW1 9775   2.345   2.516   1.504  0.2426  0.0738 -0.6700
 3061SOL    HW2 9776   2.404   2.403   1.587 -0.4756  0.6634  0.6734
 3062SOL     OW 9777   1.825   1.358   2.919 -0.3810  1.1125  0.2407
 3062SOL    HW1 9778   1.749   1.399   2.878  0.3725  2.8546  0.4916
 3062SOL    HW2 9779   1.883   1.431   2.940  0.9389 -0.0870  0.9376
 3063SOL     OW 9780   5.956   4.209   1.476  0.2896 -0.0592 -0.0779
 3063SOL    HW1 9781   5.980   4.208   1.383 -1.0129 -1.5086 -0.4397
 3063SOL    HW2 9782   5.885   4.271   1.483  0.4996  0.1757 -0.0082
 3064SOL     OW 9783   5.242   3.971   1.318  0.3686 -0.0018  0.1181
 3064SOL    HW1 9784   5.332   3.998   1.339  0.9499  0.2035 -2.2455
 3064SOL    HW2 9785   5.194   3.981   1.399  2.2956  0.7463  1.2452
 3065SOL     OW 9786   2.545   1.207   2.286  0.0314 -0.0788  0.1471
 3065SOL    HW1 9787   2.515   1.146   2.218 -0.8147 -1.8672  2.0079
 3065SOL    HW2 9788   2.483   1.280   2.282 -0.6951 -0.7001 -0.2473
 3066SOL     OW 9789   7.282   3.843   2.165  0.3332 -0.0823 -0.0449
 3066SOL    HW1 9790   7.193   3.811   2.179  0.3131  0.0016  0.0232
 3066SOL    HW2 9791   7.271   3.921   2.110  0.0705  1.7550  2.4262
 3067SOL     OW 9792   6.286   4.136   2.521  0.3102  0.7171  0.4665
 3067SOL    HW1 9793   6.303   4.048   2.488  0.3912  1.1325 -0.6448
 3067SOL    HW2 9794   6.373   4.173   2.538  0.3614  1.1764 -0.7132
 3068SOL     OW 9795   5.311   0.032   2.946  0.0751  0.2212 -0.5950
 3068SOL    HW1 9796   5.253   0.053   3.019 -0.5897 -0.7732 -0.8132
 3068SOL    HW2 9797   5.343   0.117   2.915  1.4943  0.6088  1.7150
 3069SOL     OW 9798   5.751   1.852   3.172  0.3570  0.0025 -0.2290
 3069SOL    HW1 9799   5.687   1.838   3.241  1.4091  0.6199  0.9289
 3069SOL    HW2 9800   5.765   1.766   3.133 -0.0710 -0.4112  0.5150
 3070SOL     OW 9801   3.143   3.518   0.850 -0.2494  0.5119  0.0043
 3070SOL    HW1 9802   3.129   3.500   0.943 -0.4474  0.0162 -0.1185
 3070SOL    HW2 9803   3.110   3.440   0.806  0.7670  0.3058 -0.4209
 3071SOL     OW 9804   6.295   1.226   1.138  0.5446  0.1081  0.2522
 3071SOL    HW1 9805   6.266   1.315   1.121  0.8312 -0.0561 -1.2108
 3071SOL    HW2 9806   6.368   1.212   1.077  0.7235 -1.0101  0.6931
 3072SOL     OW 9807   3.293   0.968   1.849  0.4121  0.8461 -0.4306
 3072SOL    HW1 9808   3.298   0.900   1.782  1.1496 -0.0520  0.4971
 3072SOL    HW2 9809   3.327   1.046   1.806  1.4451  0.1412 -0.9389
 3073SOL     OW 9810   3.666   0.341   2.849 -0.8108 -0.0446  0.2451
 3073SOL    HW1 9811   3.636   0.302   2.767 -1.5397  0.6056  0.1959
 3073SOL    HW2 9812   3.586   0.357   2.898 -0.4452  0.5128  0.6641
 3074SOL     OW 9813   1.857   2.552   1.457  0.3614 -0.1647 -0.2076
 3074SOL    HW1 9814   1.808   2.633   1.449  0.1497 -0.2840 -0.1297
 3074SOL    HW2 9815   1.880   2.547   1.550  0.4682 -0.1410 -0.2320
 3075SOL     OW 9816   4.783   4.000   0.416  0.4343  0.2543  0.0577
 3075SOL    HW1 9817   4.869   4.040   0.420  1.6865 -2.2461  0.0736
 3075SOL    HW2 9818   4.738   4.031   0.494  1.5956  0.9627  0.4623
 3076SOL     OW 9819   6.242   2.930   0.035 -0.0288 -0.6890  0.4158
 3076SOL    HW1 9820   6.238   3.008  -0.020 -2.0392  1.5735  3.3977
 3076SOL    HW2 9821   6.161   2.882   0.015  0.9715 -1.8473 -1.0614
 3077SOL     OW 9822   1.094   2.111   0.288 -0.0550 -0.3816  0.5655
 3077SOL    HW1 9823   1.014   2.081   0.332 -0.6419 -3.4748 -2.1638
 3077SOL    HW2 9824   1.062   2.145   0.204  1.2964  1.5426  0.7874
 3078SOL     OW 9825   4.359   0.459   1.945  0.8807 -0.5043 -0.4448
 3078SOL    HW1 9826   4.268   0.431   1.933  1.3226 -2.0913 -0.4274
 3078SOL    HW2 9827   4.361   0.496   2.033  0.0620  0.4327 -0.8055
 3079SOL     OW 9828   2.678   0.946   2.057  0.7767 -0.4650  0.0336
 3079SOL    HW1 9829   2.646   0.942   1.967  0.6545  0.8364 -0.0044
 3079SOL    HW2 9830   2.642   0.868   2.099  0.6654 -0.9797 -0.9895
 3080SOL     OW 9831   5.643   0.470   1.541 -0.3199 -0.4940 -0.2375
 3080SOL    HW1 9832   5.566   0.437   1.495  0.0872 -1.0302 -0.5329
 3080SOL    HW2 9833   5.621   0.562   1.561 -0.3342 -0.1221 -1.8508
 3081SOL     OW 9834   4.276   0.244   2.155 -0.6312 -0.4860 -0.5758
 3081SOL    HW1 9835   4.205   0.298   2.121 -0.1685 -0.1288 -0.9806
 3081SOL    HW2 9836   4.338   0.307   2.192 -0.4717 -0.7916 -0.3211
 3082SOL     OW 9837   5.739   3.589   3.046 -0.2313 -0.2212 -0.2564
 3082SOL    HW1 9838   5.689   3.667   3.022 -0.4967  0.2125  1.5933
 3082SOL    HW2 9839   5.808   3.621   3.105  0.4467 -1.2150 -0.4709
 3083SOL     OW 9840   1.630   0.425   0.346  0.2273 -0.0020  0.1284
 3083SOL    HW1 9841   1.614   0.455   0.257  2.0064 -1.2252 -0.6552
 3083SOL    HW2 9842   1.585   0.340   0.351 -0.1244  0.2016  0.5169
 3084SOL     OW 9843   1.615   5.339   1.662 -0.0981 -0.1075 -0.4609
 3084SOL    HW1 9844   1.539   5.320   1.607 -0.2479 -0.9844  0.0298
 3084SOL    HW2 9845   1.590   5.310   1.749  0.6571 -0.0345 -0.2103
 3085SOL     OW 9846   6.481   3.163   0.334  0.0137 -0.2495  0.3453
 3085SOL    HW1 9847   6.452   3.073   0.318 -0.9440  0.0782  0.1948
 3085SOL    HW2 9848   6.487   3.169   0.429  0.5505 -0.6083  0.3420
 3086SOL     OW 9849   0.480   1.166   0.099  0.1066  0.2470  0.1054
 3086SOL    HW1 9850   0.400   1.193   0.053  0.2831 -1.1515 -1.0793
 3086SOL    HW2 9851   0.489   1.230   0.170 -2.8097 -0.3114  1.1098
 3087SOL     OW 9852   2.562   0.143   2.186 -0.2797  0.3749  0.0330
 3087SOL    HW1 9853   2.522   0.227   2.163 -0.4511  0.6394  1.2131
 3087SOL    HW2 9854   2.537   0.129   2.277  0.5016 -0.5172  0.1252
 3088SOL     OW 9855   7.261   2.178   0.071 -0.4502 -0.1826 -0.5434
 3088SOL    HW1 9856   7.258   2.186   0.167 -0.4390  0.3528 -0.5862
 3088SOL    HW2 9857   7.352   2.199   0.048 -1.0115  2.1031 -0.8737
 3089SOL     OW 9858   0.678   1.026   1.500  0.0097 -0.4946  0.5275
 3089SOL    HW1 9859   0.735   0.968   1.551  0.9182 -0.3332 -0.2840
 3089SOL    HW2 9860   0.723   1.110   1.499 -0.9113  0.0158  1.0093
 3090SOL     OW 9861   4.666   3.755   1.742 -0.2521 -0.0828 -0.2845
 3090SOL    HW1 9862   4.612   3.756   1.821 -0.0488 -2.5733 -0.0564
 3090SOL    HW2 9863   4.604   3.759   1.670 -0.5961 -0.4742 -0.0091
 3091SOL     OW 9864   3.240   4.613   0.576 -0.3784  0.2156 -0.2487
 3091SOL    HW1 9865   3.182   4.676   0.534  1.1211  1.3831 -0.6616
 3091SOL    HW2 9866   3.316   4.665   0.604 -1.0936 -0.5511  3.6367
 3092SOL     OW 9867   3.559   2.917   1.138  0.0067  0.1716  0.0628
 3092SOL    HW1 9868   3.640   2.959   1.169 -0.5849  0.8048  0.7765
 3092SOL    HW2 9869   3.532   2.970   1.063 -0.3959  0.6902  0.5712
 3093SOL     OW 9870   2.392   1.862   2.904  0.0577  0.3504  0.2426
 3093SOL    HW1 9871   2.487   1.849   2.903 -0.0024 -0.1983  0.6548
 3093SOL    HW2 9872   2.380   1.953   2.878  0.6809  0.3503 -0.0832
 3094SOL     OW 9873   1.845   1.004   1.436  0.1703  0.5250  0.5097
 3094SOL    HW1 9874   1.847   1.003   1.340 -0.1714  1.9518  0.4683
 3094SOL    HW2 9875   1.857   1.096   1.460  1.3542  0.0563  1.8801
 3095SOL     OW 9876   6.703   0.596   0.329  0.3742  0.3508  0.3057
 3095SOL    HW1 9877   6.702   0.535   0.403 -1.1534  1.3960  1.2126
 3095SOL    HW2 9878   6.664   0.547   0.257  0.2836 -0.1311  0.6784
 3096SOL     OW 9879   3.001   0.946   1.862 -0.1647  0.1449  0.6454
 3096SOL    HW1 9880   2.965   0.966   1.948  0.7178  2.9376  0.4627
 3096SOL    HW2 9881   3.094   0.970   1.869  0.0098  0.0375 -0.9409
 3097SOL     OW 9882   4.290   2.203   0.740  0.0490  0.2389 -0.0736
 3097SOL    HW1 9883   4.199   2.184   0.720 -0.5376  0.6817  1.9347
 3097SOL    HW2 9884   4.337   2.123   0.718 -0.7345  0.1490 -1.5197
 3098SOL     OW 9885   0.118   4.905   2.358  0.4727  0.1489  0.5128
 3098SOL    HW1 9886   0.089   4.935   2.444  0.2065  0.9467  0.1615
 3098SOL    HW2 9887   0.191   4.845   2.376 -0.3261 -0.5999  1.3353
 3099SOL     OW 9888   7.310   1.658   2.394 -0.4733 -1.0599 -0.3453
 3099SOL    HW1 9889   7.270   1.570   2.392 -1.4201 -0.6684  0.4028
 3099SOL    HW2 9890   7.310   1.681   2.487  2.5149 -1.4598 -0.1446
 3100SOL     OW 9891   3.606   5.284   1.659  0.0325  0.1110  0.2885
 3100SOL    HW1 9892   3.550   5.344   1.610 -0.9333 -0.1733  1.0152
 3100SOL    HW2 9893   3.651   5.339   1.722  1.3478  0.4919 -0.9517
 3101SOL     OW 9894   4.031   0.511   2.350 -0.3064  0.2920  0.0765
 3101SOL    HW1 9895   3.937   0.528   2.340 -0.3289  0.2005  0.1358
 3101SOL    HW2 9896   4.051   0.535   2.440 -0.1840  0.7279 -0.0657
 3102SOL     OW 9897   2.624   4.631   2.367 -0.5854  0.5700  0.4160
 3102SOL    HW1 9898   2.672   4.709   2.340  0.3396 -0.5246 -1.2842
 3102SOL    HW2 9899   2.671   4.598   2.443  1.2824 -0.3063 -1.0345
 3103SOL     OW 9900   4.579   4.782   3.000  0.1611 -0.0687 -0.2766
 3103SOL    HW1 9901   4.514   4.780   2.930  0.5634 -0.5002 -0.6470
 3103SOL    HW2 9902   4.528   4.787   3.081 -0.3465  3.5642 -0.6375
 3104SOL     OW 9903   3.088   5.157   1.850  0.5575  0.2827  0.2261
 3104SOL    HW1 9904   3.118   5.084   1.905  2.0674  1.1733  0.6525
 3104SOL    HW2 9905   3.142   5.231   1.877  1.1224  0.8589 -2.2430
 3105SOL     OW 9906   4.739   3.153   3.385  0.4776 -0.0044  0.0165
 3105SOL    HW1 9907   4.653   3.113   3.382  0.3539  0.3113 -0.7284
 3105SOL    HW2 9908   4.794   3.088   3.430  0.2781 -1.0134 -1.1325
 3106SOL     OW 9909   4.623   4.992   1.466 -0.3927 -0.2634 -0.2033
 3106SOL    HW1 9910   4.688   4.924   1.448  0.0427  0.1177 -0.1018
 3106SOL    HW2 9911   4.596   4.976   1.557 -0.5713 -0.5322 -0.3052
 3107SOL     OW 9912   3.375   4.023   3.426 -0.0611  0.1145  0.4144
 3107SOL    HW1 9913   3.298   4.032   3.482 -0.0536 -0.2527  0.4839
 3107SOL    HW2 9914   3.449   4.027   3.486 -0.0937 -3.1942  0.8680
 3108SOL     OW 9915   6.450   1.132   2.412  0.0705  0.5775 -0.0258
 3108SOL    HW1 9916   6.495   1.193   2.472  0.2965 -0.0194  0.4201
 3108SOL    HW2 9917   6.427   1.186   2.336 -1.5383  1.7358  1.2032
 3109SOL     OW 9918   3.831   5.150   1.533 -0.0290  0.5216 -0.0259
 3109SOL    HW1 9919   3.770   5.194   1.593  0.7651 -0.6007  1.6797
 3109SOL    HW2 9920   3.847   5.214   1.464 -0.8662  1.9340  1.0356
 3110SOL     OW 9921   5.093   3.638   0.315  0.2161 -0.1755  0.4060
 3110SOL    HW1 9922   5.120   3.546   0.320  1.9923  0.0931 -2.1860
 3110SOL    HW2 9923   5.167   3.687   0.350  0.0810  0.3172  0.0147
 3111SOL     OW 9924   2.540   4.502   0.949 -0.2329 -0.0641  0.4005
 3111SOL    HW1 9925   2.628   4.481   0.981 -0.1393 -1.5803 -0.7126
 3111SOL    HW2 9926   2.554   4.572   0.885 -0.0609  0.8843  1.4586
 3112SOL     OW 9927   1.483   3.977   3.023  0.4618 -0.5694  0.1497
 3112SOL    HW1 9928   1.399   3.969   3.067  1.7407 -0.9936  2.7086
 3112SOL    HW2 9929   1.503   4.070   3.024 -0.2254 -0.3789 -1.0929
 3113SOL     OW 9930   2.856   2.221   0.694  0.8402  0.3649  0.0165
 3113SOL    HW1 9931   2.904   2.168   0.629  0.4181 -0.1972  0.1587
 3113SOL    HW2 9932   2.847   2.164   0.770  0.4168  0.6570  0.1899
 3114SOL     OW 9933   1.669   1.225   3.093  0.2447  0.4096  0.1168
 3114SOL    HW1 9934   1.708   1.232   3.180  1.3876  0.1080 -0.3528
 3114SOL    HW2 9935   1.734   1.262   3.034  0.0494 -0.5550 -0.7522
 3115SOL     OW 9936   5.394   1.357   0.202  0.2490  0.3278 -0.1410
 3115SOL    HW1 9937   5.423   1.436   0.155  0.9007 -0.3488 -0.9122
 3115SOL    HW2 9938   5.471   1.331   0.253  1.1891 -1.6362 -2.4022
 3116SOL     OW 9939   2.721   2.146   3.244  0.3413 -0.2641  0.0732
 3116SOL    HW1 9940   2.695   2.055   3.258  1.7167 -0.5963  0.5817
 3116SOL    HW2 9941   2.813   2.149   3.271  0.4888  1.1355 -0.5340
 3117SOL     OW 9942   2.077   1.622   3.250 -0.4869 -0.6566 -0.0989
 3117SOL    HW1 9943   2.134   1.623   3.173 -0.6553 -0.0278 -0.2223
 3117SOL    HW2 9944   1.989   1.639   3.215 -0.4443  0.5115  0.3165
 3118SOL     OW 9945   1.192   4.395   2.716 -0.4856 -0.3676  0.0183
 3118SOL    HW1 9946   1.155   4.308   2.732 -0.5243 -0.4206 -0.3628
 3118SOL    HW2 9947   1.251   4.384   2.641 -0.2845 -0.1221  0.1363
 3119SOL     OW 9948   1.825   0.792   0.632 -0.8282 -0.3553  0.3988
 3119SOL    HW1 9949   1.891   0.724   0.645  0.1673  0.4098 -0.5328
 3119SOL    HW2 9950   1.774   0.761   0.557 -0.6374 -0.2718  0.2349
 3120SOL     OW 9951   2.058   5.077   0.595  0.4368  0.2638 -0.2717
 3120SOL    HW1 9952   1.999   5.042   0.662 -0.3790  4.2052  1.3815
 3120SOL    HW2 9953   1.999   5.101   0.523  0.4157  1.3168  0.0764
 3121SOL     OW 9954   2.711   2.754   3.272 -0.3894  0.6231  0.1373
 3121SOL    HW1 9955   2.643   2.812   3.308  0.8830  1.4428  1.3179
 3121SOL    HW2 9956   2.706   2.675   3.325  0.9627  1.5258  1.6936
 3122SOL     OW 9957   5.082   4.033   1.535  0.5379  0.0676  0.5689
 3122SOL    HW1 9958   5.116   4.116   1.569  0.0548  0.6962 -0.4357
 3122SOL    HW2 9959   4.997   4.055   1.497  0.5610 -0.8167 -0.0284
 3123SOL     OW 9960   1.937   4.450   2.148 -0.3126 -0.4906  0.0404
 3123SOL    HW1 9961   1.938   4.538   2.110  1.4496 -0.8921 -0.9643
 3123SOL    HW2 9962   1.998   4.454   2.221 -2.7981 -0.0449  2.2387
 3124SOL     OW 9963   4.310   1.118   1.614  0.1227  0.1775 -0.1524
 3124SOL    HW1 9964   4.388   1.150   1.658  0.9139 -0.2425 -1.2192
 3124SOL    HW2 9965   4.291   1.034   1.657  1.7152 -0.9240 -1.4797
 3125SOL     OW 9966   5.827   4.381   3.097 -0.8767  0.5101 -1.1056
 3125SOL    HW1 9967   5.870   4.360   3.180 -1.2608  0.3663 -0.9418
 3125SOL    HW2 9968   5.893   4.363   3.030 -1.4313 -2.0878 -1.0488
 3126SOL     OW 9969   6.375   3.098   1.258  0.2891 -0.2035 -0.3087
 3126SOL    HW1 9970   6.418   3.110   1.173 -1.4608 -0.3835 -1.2620
 3126SOL    HW2 9971   6.298   3.046   1.238 -0.9251  0.9613  1.1656
 3127SOL     OW 9972   2.951   1.934   0.322 -0.1186 -0.0630 -0.2552
 3127SOL    HW1 9973   2.989   1.934   0.410  1.2360  0.9468 -0.8048
 3127SOL    HW2 9974   2.878   1.872   0.327  0.1469 -0.2776  1.4792
 3128SOL     OW 9975   6.508   1.012   0.038 -0.2937  0.0968  0.3276
 3128SOL    HW1 9976   6.421   1.008   0.078 -1.0835 -3.0199 -1.3491
 3128SOL    HW2 9977   6.569   1.008   0.112 -1.6135 -0.5346  1.4280
 3129SOL     OW 9978   1.865   1.602   3.073 -0.1301 -0.1988  0.6986
 3129SOL    HW1 9979   1.771   1.606   3.090 -0.4355 -1.0430 -0.6801
 3129SOL    HW2 9980   1.885   1.688   3.036  0.0938  0.7786  2.9265
 3130SOL     OW 9981   6.228   2.957   1.497 -0.2944  0.0324 -0.0522
 3130SOL    HW1 9982   6.243   3.031   1.437 -2.1543 -0.2915 -0.9904
 3130SOL    HW2 9983   6.296   2.966   1.563  0.3873  1.7808 -0.9200
 3131SOL     OW 9984   5.771   4.817   0.735 -0.0199  0.1123 -0.5031
 3131SOL    HW1 9985   5.693   4.872   0.744 -0.5860 -0.5372 -1.3240
 3131SOL    HW2 9986   5.737   4.727   0.730  0.6991 -0.0986 -1.9500
 3132SOL     OW 9987   7.248   2.699   0.084 -0.0167 -0.6113  0.5020
 3132SOL    HW1 9988   7.194   2.778   0.082  1.1588  0.2792  1.8780
 3132SOL    HW2 9989   7.198   2.634   0.034 -2.0775  0.3213  1.2473
 3133SOL     OW 9990   1.826   3.397   1.080  0.1131  0.0321  0.1294
 3133SOL    HW1 9991   1.921   3.398   1.071  0.0497  0.1748 -0.5690
 3133SOL    HW2 9992   1.811   3.384   1.174  0.8058 -1.1671  0.0880
 3134SOL     OW 9993   4.428   1.157   1.989 -0.7217 -0.1717  0.0400
 3134SOL    HW1 9994   4.389   1.228   2.040  1.8214  1.1535  0.3257
 3134SOL    HW2 9995   4.450   1.197   1.905 -0.4548 -0.9839 -0.2851
 3135SOL     OW 9996   2.841   3.670   1.061  0.2916 -0.5553  0.3475
 3135SOL    HW1 9997   2.936   3.678   1.068  0.2485 -1.0034  1.7490
 3135SOL    HW2 9998   2.823   3.676   0.967  1.7991 -1.4614 -0.0363
 3136SOL     OW 9999   5.159   2.310   1.450  0.0872 -0.4280 -0.2281
 3136SOL    HW110000   5.141   2.336   1.360  1.5181  1.1103 -0.1144
 3136SOL    HW210001   5.233   2.364   1.477 -1.0492  0.0608  2.2740
 3137SOL     OW10002   1.429   3.560   1.057  0.2881 -0.0436  0.0665
 3137SOL    HW110003   1.401   3.607   1.136 -1.2592  0.4386 -0.7383
 3137SOL    HW210004   1.417   3.468   1.078 -0.3479  0.0912  0.3246
 3138SOL     OW10005   4.569   2.510   2.088  0.2518  0.2009 -0.7769
 3138SOL    HW110006   4.574   2.598   2.125  2.4831 -0.1016 -0.2786
 3138SOL    HW210007   4.504   2.465   2.142 -0.4982  1.3461 -0.6863
 3139SOL     OW10008   6.357   4.172   2.944  1.1928 -0.3112 -0.0736
 3139SOL    HW110009   6.290   4.122   2.899  1.3353 -0.7931  0.2289
 3139SOL    HW210010   6.327   4.263   2.942 -0.7668 -0.8171  2.2799
 3140SOL     OW10011   3.183   4.828   1.689  0.4763  0.7119 -0.0322
 3140SOL    HW110012   3.226   4.854   1.771  0.7867  2.2807 -0.6504
 3140SOL    HW210013   3.205   4.898   1.628 -2.0239  1.0030 -0.7124
 3141SOL     OW10014   4.937   1.405   1.957  0.6482 -0.3331 -0.2318
 3141SOL    HW110015   4.848   1.373   1.944  0.9853 -0.7195 -1.7887
 3141SOL    HW210016   4.932   1.499   1.939  0.4262 -0.2182  0.4057
 3142SOL     OW10017   5.475   1.342   3.235  0.1298 -0.0967 -0.3194
 3142SOL    HW110018   5.543   1.371   3.295 -0.3001  0.2946 -0.0093
 3142SOL    HW210019   5.489   1.248   3.226 -0.0646 -0.2446  0.7635
 3143SOL     OW10020   4.805   4.499   0.138 -0.1909  0.1209 -0.4784
 3143SOL    HW110021   4.894   4.498   0.173 -0.8120 -0.0642  1.2140
 3143SOL    HW210022   4.807   4.564   0.068  0.9196  1.2282  0.5340
 3144SOL     OW10023   2.365   1.502   1.923 -0.0127 -0.1335  0.0169
 3144SOL    HW110024   2.384   1.483   1.831 -1.0248  0.9122 -0.4425
 3144SOL    HW210025   2.277   1.466   1.937 -0.3637  0.7715  0.2168
 3145SOL     OW10026   7.239   5.159   3.220 -0.0641 -0.1005  0.0636
 3145SOL    HW110027   7.271   5.172   3.310 -0.3571  1.0032  0.0168
 3145SOL    HW210028   7.148   5.187   3.223 -0.1688 -0.3737 -0.5068
 3146SOL     OW10029   2.214   2.757   3.184  0.1968  0.1043 -1.0334
 3146SOL    HW110030   2.234   2.824   3.249 -2.1030  0.1448 -0.3085
 3146SOL    HW210031   2.282   2.768   3.117  1.9105  0.8453  0.7421
 3147SOL     OW10032   1.439   0.233   0.841 -0.1715 -0.1717 -0.2370
 3147SOL    HW110033   1.385   0.180   0.900 -1.7251  0.4692 -1.0333
 3147SOL    HW210034   1.487   0.292   0.899 -1.6466  0.4240  0.4190
 3148SOL     OW10035   2.571   2.253   0.563 -0.3753 -0.0155 -0.1143
 3148SOL    HW110036   2.658   2.255   0.603 -0.8776 -1.9054  1.2254
 3148SOL    HW210037   2.578   2.184   0.497 -0.4537  0.8968 -1.0962
 3149SOL     OW10038   3.821   0.944   0.554 -0.2897 -0.1443 -0.3186
 3149SOL    HW110039   3.904   0.991   0.562  0.2528 -1.0300 -0.6213
 3149SOL    HW210040   3.759   1.010   0.524  0.4662  0.3827 -0.7573
 3150SOL     OW10041   3.593   3.137   3.363 -0.3622 -0.1169  0.0224
 3150SOL    HW110042   3.668   3.196   3.364 -0.1197 -0.4047  1.2057
 3150SOL    HW210043   3.601   3.089   3.281 -1.3190  2.3771 -1.6360
 3151SOL     OW10044   3.045   4.647   2.114 -0.0657 -0.0431  0.2460
 3151SOL    HW110045   3.081   4.574   2.163 -0.6096 -0.9644 -0.6943
 3151SOL    HW210046   2.966   4.612   2.072 -0.7255  1.2651  0.3174
 3152SOL     OW10047   2.629   1.027   0.582 -0.1165  0.5928  0.4441
 3152SOL    HW110048   2.579   0.956   0.542  1.4344 -0.4542  0.2526
 3152SOL    HW210049   2.579   1.106   0.562 -0.9707 -0.2464 -0.9283
 3153SOL     OW10050   4.123   1.383   1.858  0.5583  0.2029  0.1889
 3153SOL    HW110051   4.043   1.349   1.817  1.9398 -2.4268 -0.5745
 3153SOL    HW210052   4.143   1.463   1.810 -0.5540 -0.1634 -0.9490
 3154SOL     OW10053   4.457   3.096   3.400 -0.5829  0.0978  0.2329
 3154SOL    HW110054   4.433   3.185   3.373 -0.4058  0.3856  1.0023
 3154SOL    HW210055   4.423   3.088   3.489  0.4713 -0.1770  0.6200
 3155SOL     OW10056   1.088   4.610   3.017 -0.3726 -0.5201  0.2273
 3155SOL    HW110057   1.043   4.581   3.096 -2.7354  0.2487 -0.7331
 3155SOL    HW210058   1.106   4.703   3.033 -1.2373 -0.2532 -0.2409
 3156SOL     OW10059   5.035   2.702   2.051  0.1348 -0.1528  0.4468
 3156SOL    HW110060   5.044   2.784   2.003  0.8236 -1.8619 -2.5539
 3156SOL    HW210061   5.124   2.682   2.081  0.0179  0.0262  0.9254
 3157SOL     OW10062   3.790   2.139   1.246  0.1488 -0.0784  0.4078
 3157SOL    HW110063   3.805   2.055   1.203 -0.7336 -0.5998  1.0755
 3157SOL    HW210064   3.702   2.131   1.283  0.5022  0.7096  1.4587
 3158SOL     OW10065   2.225   5.045   1.268 -0.1059  0.2101  0.4088
 3158SOL    HW110066   2.155   4.997   1.312  0.1334 -0.0513  0.5053
 3158SOL    HW210067   2.273   4.979   1.218  0.1927  0.3538  0.5021
 3159SOL     OW10068   3.564   0.193   2.584  0.7266 -0.3792  0.7959
 3159SOL    HW110069   3.491   0.173   2.642  0.4289 -0.5077  0.3800
 3159SOL    HW210070   3.528   0.257   2.522  1.2136  0.2261  1.1269
 3160SOL     OW10071   6.542   4.246   0.675  0.0284 -0.2206  0.3425
 3160SOL    HW110072   6.469   4.184   0.667 -0.8006  0.7537  0.1231
 3160SOL    HW210073   6.554   4.256   0.770  1.0712 -1.7127  0.4051
 3161SOL     OW10074   6.001   4.288   0.116 -1.0074 -0.4401 -0.2435
 3161SOL    HW110075   5.925   4.347   0.115 -0.7351 -0.0829 -0.2356
 3161SOL    HW210076   6.074   4.344   0.142 -0.8741 -0.9483  0.5258
 3162SOL     OW10077   2.820   0.678   1.523  0.4543  0.1449 -0.3882
 3162SOL    HW110078   2.756   0.680   1.452 -1.0659 -1.5591  0.8200
 3162SOL    HW210079   2.794   0.749   1.581 -0.7494 -0.8488  0.3534
 3163SOL     OW10080   2.656   3.182   0.728 -0.0223 -0.3368 -0.7520
 3163SOL    HW110081   2.572   3.158   0.769  0.6267 -0.2729  0.6938
 3163SOL    HW210082   2.715   3.110   0.752  0.7465  0.4134 -0.3282
 3164SOL     OW10083   1.694   2.022   1.375  0.4858 -0.0006  0.0595
 3164SOL    HW110084   1.761   2.011   1.443  0.7537 -1.2130 -0.3847
 3164SOL    HW210085   1.737   2.078   1.310  1.5912 -1.8109 -0.8460
 3165SOL     OW10086   4.666   2.729   0.754  0.3873  0.7928  0.4063
 3165SOL    HW110087   4.760   2.730   0.740  0.6178 -4.2205 -0.0806
 3165SOL    HW210088   4.628   2.738   0.667  0.3861  1.8410  0.4989
 3166SOL     OW10089   6.651   3.296   1.171 -0.3785 -0.4100  0.2021
 3166SOL    HW110090   6.633   3.284   1.078  2.2359  2.0134 -0.7765
 3166SOL    HW210091   6.597   3.369   1.197  1.0464  0.8819 -0.3012
 3167SOL     OW10092   3.489   0.146   1.891  0.7597  0.0638  0.0861
 3167SOL    HW110093   3.543   0.082   1.936  1.0361  0.0206 -0.3061
 3167SOL    HW210094   3.504   0.228   1.939  0.2557 -0.2010  0.7057
 3168SOL     OW10095   5.842   1.394   2.453  0.0015  0.6229 -0.0795
 3168SOL    HW110096   5.783   1.456   2.412  0.0524  0.6294 -0.1433
 3168SOL    HW210097   5.795   1.310   2.450 -1.0644  1.0751  2.0980
 3169SOL     OW10098   6.315   4.899   1.998 -0.2055 -0.2793  0.0440
 3169SOL    HW110099   6.248   4.939   1.942  1.0942  0.5173 -1.0154
 3169SOL    HW210100   6.266   4.844   2.059 -1.8020  0.1657 -0.7817
 3170SOL     OW10101   7.200   2.296   2.934 -0.2228 -0.2140 -0.3950
 3170SOL    HW110102   7.270   2.353   2.903  0.3330 -1.2309 -1.0677
 3170SOL    HW210103   7.164   2.257   2.855 -0.3820 -1.0346  0.0692
 3171SOL     OW10104   2.173   2.549   2.885  0.2083  0.1536 -0.2501
 3171SOL    HW110105   2.124   2.508   2.957 -1.4242  0.0301 -1.3718
 3171SOL    HW210106   2.263   2.553   2.917 -0.0110 -2.0365  0.8952
 3172SOL     OW10107   5.140   3.444   2.593 -0.0860 -0.3893  0.1394
 3172SOL    HW110108   5.071   3.424   2.530  0.2769  1.1587 -0.7762
 3172SOL    HW210109   5.216   3.393   2.562  0.0652  0.2938 -0.6449
 3173SOL     OW10110   2.763   1.599   0.597  0.0974 -0.6271  0.1278
 3173SOL    HW110111   2.789   1.690   0.588 -1.7717 -0.1195 -0.6632
 3173SOL    HW210112   2.758   1.585   0.692 -0.6284  0.4387  0.2694
 3174SOL     OW10113   4.216   4.085   2.776 -0.3109  0.1016  0.3873
 3174SOL    HW110114   4.307   4.086   2.806 -0.2328 -0.0732  0.1583
 3174SOL    HW210115   4.173   4.154   2.827 -0.4457 -0.9380  1.7499
 3175SOL     OW10116   1.252   2.097   2.480 -0.3055 -0.2551 -0.0936
 3175SOL    HW110117   1.327   2.155   2.494 -0.1940 -0.1353 -1.1260
 3175SOL    HW210118   1.205   2.098   2.564  0.3734  0.3416  0.2909
 3176SOL     OW10119   4.842   0.083   1.754  0.4351 -0.1688  0.4545
 3176SOL    HW110120   4.923   0.091   1.804  0.7573  2.0452 -0.3071
 3176SOL    HW210121   4.801   0.003   1.787  2.4897 -0.8673  1.4694
 3177SOL     OW10122   1.912   4.904   2.909 -0.2968 -0.3509 -0.3172
 3177SOL    HW110123   1.958   4.889   2.827 -2.0466 -1.2176 -1.1766
 3177SOL    HW210124   1.956   4.980   2.947  1.0232 -0.3881 -1.6769
 3178SOL     OW10125   4.437   5.344   1.075 -0.4925  0.2967  0.1665
 3178SOL    HW110126   4.490   5.303   1.144  0.2772  2.3267  0.8822
 3178SOL    HW210127   4.485   5.325   0.994  0.3734  0.5851  0.5938
 3179SOL     OW10128   1.023   0.389   0.616 -0.0605  1.0448 -0.5661
 3179SOL    HW110129   1.048   0.476   0.646 -1.0591  0.0830  3.7294
 3179SOL    HW210130   1.104   0.338   0.622 -0.0487  1.0790 -0.4300
 3180SOL     OW10131   6.113   0.349   0.834 -0.0338  0.2371 -0.2421
 3180SOL    HW110132   6.079   0.426   0.788 -1.1512 -0.0169  0.1104
 3180SOL    HW210133   6.201   0.374   0.862 -0.1149  1.1274 -0.7473
 3181SOL     OW10134   4.638   1.557   0.195 -0.3580 -0.3948  0.1076
 3181SOL    HW110135   4.662   1.466   0.180 -0.9159 -0.6695  0.7854
 3181SOL    HW210136   4.603   1.558   0.284  2.2189  1.0149  1.2103
 3182SOL     OW10137   0.622   2.030   0.279 -0.5675  0.6646  0.0233
 3182SOL    HW110138   0.623   1.993   0.367  0.8218 -1.0595 -0.6267
 3182SOL    HW210139   0.558   1.977   0.231  0.3649  0.0191 -0.5517
 3183SOL     OW10140   4.889   3.883   3.216  0.1297 -0.1942  0.1723
 3183SOL    HW110141   4.897   3.939   3.139  1.3176  0.4238  0.7162
 3183SOL    HW210142   4.956   3.815   3.203 -0.4645 -0.7793  0.1088
 3184SOL     OW10143   3.398   3.445   0.795 -0.6585 -0.0032 -0.2744
 3184SOL    HW110144   3.308   3.458   0.825 -1.2758  0.3632 -2.1881
 3184SOL    HW210145   3.420   3.525   0.748  0.4081 -0.3967 -0.4686
 3185SOL     OW10146   4.584   0.520   1.112 -0.2982  0.1382  0.1562
 3185SOL    HW110147   4.522   0.550   1.047 -1.8725 -0.1636  1.4681
 3185SOL    HW210148   4.588   0.425   1.100 -1.0859  0.0020  0.8934
 3186SOL     OW10149   2.349   5.282   1.894  0.3264 -0.2352  0.0425
 3186SOL    HW110150   2.299   5.364   1.900  0.8623  0.1609 -0.6850
 3186SOL    HW210151   2.420   5.302   1.832  0.9395 -1.0112  0.4775
 3187SOL     OW10152   7.241   4.666   1.607 -0.2475  0.4697  0.0563
 3187SOL    HW110153   7.310   4.610   1.572 -0.4426  0.1576  0.1652
 3187SOL    HW210154   7.163   4.642   1.557 -0.3466  0.6026  0.1450
 3188SOL     OW10155   5.841   0.057   0.981 -0.3907  0.5136 -0.4637
 3188SOL    HW110156   5.839   0.132   1.040 -1.5799  0.3609 -0.3038
 3188SOL    HW210157   5.785   0.083   0.908  1.7588  1.0702 -2.0186
 3189SOL     OW10158   3.680   3.870   0.746 -0.9164  0.0162 -0.0238
 3189SOL    HW110159   3.659   3.954   0.703 -1.3282  0.2645  0.6484
 3189SOL    HW210160   3.775   3.862   0.736 -0.6959  1.1345  0.8901
 3190SOL     OW10161   1.378   3.217   2.510 -0.0657 -0.2116 -0.1956
 3190SOL    HW110162   1.434   3.146   2.542  0.9717  0.1737 -1.0941
 3190SOL    HW210163   1.352   3.190   2.422  0.4790  0.5889 -0.6115
 3191SOL     OW10164   7.227   4.810   2.896  0.3633  0.3955  0.1173
 3191SOL    HW110165   7.187   4.751   2.959 -0.4051  2.1623  1.3603
 3191SOL    HW210166   7.220   4.765   2.812 -1.3272 -0.7177  0.8262
 3192SOL     OW10167   7.034   0.330   1.251  0.1044 -0.2636  0.4706
 3192SOL    HW110168   7.067   0.417   1.271  0.8637 -0.2653 -0.6627
 3192SOL    HW210169   7.039   0.282   1.334 -0.2816  0.7423  1.0905
 3193SOL     OW10170   3.670   1.722   1.216  0.0458 -0.9533  0.2799
 3193SOL    HW110171   3.751   1.773   1.211 -0.3049 -0.4599 -1.0964
 3193SOL    HW210172   3.686   1.646   1.160 -0.2263 -1.1639  0.4848
 3194SOL     OW10173   4.179   0.976   2.202 -0.0206  0.1149  0.3170
 3194SOL    HW110174   4.227   1.055   2.226 -0.1662  0.1398  0.5327
 3194SOL    HW210175   4.090   0.991   2.235  0.2723 -0.6846  1.5517
 3195SOL     OW10176   4.377   2.414   2.270  0.3235  0.2855 -0.0257
 3195SOL    HW110177   4.384   2.332   2.319 -2.7699  0.2503  0.5090
 3195SOL    HW210178   4.393   2.482   2.335 -0.2176  0.1763  0.2182
 3196SOL     OW10179   3.638   3.976   0.371 -0.3424 -0.3567 -0.0802
 3196SOL    HW110180   3.641   3.903   0.432 -0.6686  0.4148  0.8917
 3196SOL    HW210181   3.719   4.024   0.387 -1.7447  1.5535  1.9958
 3197SOL     OW10182   1.869   0.575   2.049 -1.0125  0.0848  0.0625
 3197SOL    HW110183   1.812   0.651   2.036  1.0168  1.6459 -0.2719
 3197SOL    HW210184   1.839   0.537   2.132 -1.6352  1.6905  0.6259
 3198SOL     OW10185   3.123   3.777   1.413  0.1822 -0.6954 -0.6001
 3198SOL    HW110186   3.173   3.788   1.493  0.6997 -0.9502 -0.8819
 3198SOL    HW210187   3.037   3.814   1.432  0.2590 -0.8823  0.1158
 3199SOL     OW10188   5.881   0.152   3.227 -0.0864  0.1424 -0.3009
 3199SOL    HW110189   5.947   0.184   3.289  0.0232  0.4501 -0.5738
 3199SOL    HW210190   5.930   0.135   3.146 -0.2806  0.0204 -0.3949
 3200SOL     OW10191   4.805   5.054   3.340  0.1994  0.1637 -0.0586
 3200SOL    HW110192   4.821   5.029   3.249 -0.6593  0.4887 -0.3157
 3200SOL    HW210193   4.747   5.129   3.334  0.3347  0.3431  0.7605
 3201SOL     OW10194   4.549   1.639   3.277  0.5467 -0.0179 -0.1152
 3201SOL    HW110195   4.480   1.636   3.343  3.0770  0.9573  2.8238
 3201SOL    HW210196   4.593   1.554   3.284  2.1367  0.8512  1.1043
 3202SOL     OW10197   0.293   1.850   0.936 -0.6617 -0.1061  0.8627
 3202SOL    HW110198   0.270   1.776   0.992 -0.2119 -0.2655  0.8356
 3202SOL    HW210199   0.230   1.845   0.863 -0.2117 -0.8526  0.5174
 3203SOL     OW10200   0.297   4.179   0.482 -0.4897 -0.2163 -0.4948
 3203SOL    HW110201   0.295   4.207   0.574  3.2090  2.5252 -1.0330
 3203SOL    HW210202   0.258   4.253   0.435 -0.3198 -0.6328 -1.2879
 3204SOL     OW10203   4.071   2.716   1.251 -0.3752 -0.3105  0.0454
 3204SOL    HW110204   4.136   2.665   1.203 -1.1971 -0.1987 -1.2515
 3204SOL    HW210205   4.101   2.806   1.244  0.7319 -0.5122  1.7764
 3205SOL     OW10206   6.657   2.117   0.358 -0.3049  0.2105 -1.0729
 3205SOL    HW110207   6.563   2.109   0.338 -0.6067 -1.6851  0.7977
 3205SOL    HW210208   6.664   2.196   0.411 -1.9753 -2.5742  3.9325
 3206SOL     OW10209   3.695   1.760   0.885 -0.0145 -0.3314  0.1442
 3206SOL    HW110210   3.739   1.788   0.805  1.1178  1.0228  1.1933
 3206SOL    HW210211   3.610   1.805   0.883  0.9498  1.6210  0.7878
 3207SOL     OW10212   2.186   1.289   1.076  0.1878 -0.3857  0.4695
 3207SOL    HW110213   2.166   1.196   1.091  2.2942 -1.1266 -0.8885
 3207SOL    HW210214   2.134   1.312   0.999  0.1940 -0.6203  0.3958
 3208SOL     OW10215   0.797   1.720   1.316 -0.1148 -0.1691  0.2882
 3208SOL    HW110216   0.848   1.795   1.283 -2.2720  1.2874  0.0476
 3208SOL    HW210217   0.820   1.648   1.258  1.7069  0.3726  0.2599
 3209SOL     OW10218   2.506   0.677   2.427  0.4552 -0.0336 -0.4732
 3209SOL    HW110219   2.534   0.593   2.390  1.1329 -0.0235  0.0062
 3209SOL    HW210220   2.413   0.682   2.406  0.4307 -0.8561 -0.5999
 3210SOL     OW10221   3.996   4.987   1.702 -0.2762  0.2073  0.5438
 3210SOL    HW110222   3.986   5.047   1.629  1.2000  0.3329  0.4225
 3210SOL    HW210223   3.910   4.944   1.709 -0.5705  0.4851 -0.9851
 3211SOL     OW10224   1.982   1.304   3.450 -0.3561  0.0975 -0.0727
 3211SOL    HW110225   1.976   1.305   3.354  3.4362  0.3343 -0.4556
 3211SOL    HW210226   1.970   1.213   3.475  1.8104 -0.5432 -1.1751
 3212SOL     OW10227   4.360   2.929   2.514  0.0916 -0.3303 -0.7102
 3212SOL    HW110228   4.443   2.881   2.523 -0.2533 -0.8352 -0.1069
 3212SOL    HW210229   4.375   2.991   2.442  1.3654  0.3555  0.1003
 3213SOL     OW10230   1.989   2.968   0.592  0.1050  0.2379  0.3593
 3213SOL    HW110231   1.954   2.895   0.541  0.0780 -0.3425  1.1866
 3213SOL    HW210232   1.916   2.994   0.648  1.0456 -1.3162  2.4814
 3214SOL     OW10233   5.579   4.126   1.087  0.6436  0.3020  0.3635
 3214SOL    HW110234   5.589   4.209   1.134  0.6360  1.2751 -1.2814
 3214SOL    HW210235   5.535   4.150   1.006  1.4365 -1.1860 -0.5379
 3215SOL     OW10236   5.809   1.927   1.240  0.0046 -0.1924 -0.5921
 3215SOL    HW110237   5.862   2.001   1.210  1.1896  0.3484  2.4336
 3215SOL    HW210238   5.768   1.959   1.320  1.4492 -3.0653  1.4605
 3216SOL     OW10239   3.538   4.575   2.504  0.0956 -0.0382 -0.8545
 3216SOL    HW110240   3.608   4.519   2.540 -0.3222 -0.3619 -0.5365
 3216SOL    HW210241   3.585   4.640   2.451  0.7438  0.4852  0.3091
 3217SOL     OW10242   6.550   1.014   1.981 -0.4522  0.3949  0.4071
 3217SOL    HW110243   6.593   0.960   2.048 -0.0784 -1.3505 -1.1660
 3217SOL    HW210244   6.457   1.013   2.005 -0.1273  1.1796  1.7997
 3218SOL     OW10245   4.377   3.698   0.351  0.2816 -0.0894 -0.2927
 3218SOL    HW110246   4.434   3.691   0.274  0.3941  0.0157 -0.2190
 3218SOL    HW210247   4.363   3.607   0.378  1.1638 -0.0863  0.2398
 3219SOL     OW10248   3.854   2.746   0.792  0.1348  0.1121  0.7046
 3219SOL    HW110249   3.884   2.661   0.823  0.4057  0.2168  0.7386
 3219SOL    HW210250   3.930   2.783   0.748  0.3498  0.7681  1.5909
 3220SOL     OW10251   1.409   0.552   1.396 -0.2583 -0.1658 -0.7758
 3220SOL    HW110252   1.434   0.487   1.462  2.3351  1.0741 -0.3876
 3220SOL    HW210253   1.464   0.532   1.320 -0.0387  1.0104 -0.9550
 3221SOL     OW10254   5.251   5.035   1.211  0.0808  0.0586 -0.5119
 3221SOL    HW110255   5.191   4.972   1.172  1.4834 -0.2568 -2.3311
 3221SOL    HW210256   5.199   5.115   1.221 -1.2604 -0.8696  0.2534
 3222SOL     OW10257   3.123   2.106   0.895  0.6251  0.6837 -0.0448
 3222SOL    HW110258   3.186   2.177   0.901  1.0773  0.2699  0.1868
 3222SOL    HW210259   3.175   2.030   0.871  0.0746  0.5283 -0.7797
 3223SOL     OW10260   3.192   2.897   0.936  0.1692 -0.3517 -0.0565
 3223SOL    HW110261   3.128   2.881   0.866 -0.9679  2.0478  0.3626
 3223SOL    HW210262   3.144   2.884   1.017  0.7915 -0.5673  0.2864
 3224SOL     OW10263   7.240   0.839   3.327  0.2034 -0.1899 -0.0937
 3224SOL    HW110264   7.320   0.866   3.282  0.2764  0.2536  0.2915
 3224SOL    HW210265   7.181   0.913   3.317  1.0190  0.9204  2.4794
 3225SOL     OW10266   3.305   1.531   2.751  0.1922  0.5249  0.0931
 3225SOL    HW110267   3.269   1.520   2.839 -1.0672  2.2297 -0.1737
 3225SOL    HW210268   3.387   1.579   2.764  1.1099 -1.0571  0.4671
 3226SOL     OW10269   5.199   2.048   2.028  0.4347 -0.1053  0.6390
 3226SOL    HW110270   5.268   1.998   1.983 -0.6686  0.1291 -1.4350
 3226SOL    HW210271   5.232   2.138   2.029  0.0662  0.0710 -0.6635
 3227SOL     OW10272   0.625   2.406   1.155  0.0242  0.1201 -0.6755
 3227SOL    HW110273   0.637   2.493   1.193  0.0454 -0.3082  0.3298
 3227SOL    HW210274   0.714   2.377   1.134  0.2940 -0.6149  1.2332
 3228SOL     OW10275   4.383   2.362   0.008  0.4513 -0.2201 -0.5566
 3228SOL    HW110276   4.300   2.354  -0.039  0.7588 -1.7667 -0.8874
 3228SOL    HW210277   4.394   2.457   0.021 -1.7260 -0.0194  0.1809
 3229SOL     OW10278   6.744   1.274   0.224 -0.2784 -0.0966  0.2487
 3229SOL    HW110279   6.775   1.185   0.208  0.5669  0.5495 -2.1264
 3229SOL    HW210280   6.698   1.298   0.144 -0.2256  1.7092  0.7167
 3230SOL     OW10281   4.084   4.377   0.181  0.1753 -0.3958 -0.0861
 3230SOL    HW110282   4.157   4.348   0.126  2.4246  0.2338  2.3833
 3230SOL    HW210283   4.061   4.301   0.234 -0.7610 -0.4642 -0.5521
 3231SOL     OW10284   0.292   4.244   0.096 -0.0287 -0.1087  0.6320
 3231SOL    HW110285   0.209   4.227   0.140  0.0563  1.2172  1.3657
 3231SOL    HW210286   0.291   4.339   0.079  0.7479 -0.2889 -0.5838
 3232SOL     OW10287   1.980   3.786   1.490 -0.0200  0.1201 -0.6836
 3232SOL    HW110288   1.972   3.691   1.496  1.3411 -0.1935 -2.7443
 3232SOL    HW210289   1.890   3.818   1.484 -0.4669 -1.2185 -1.6222
 3233SOL     OW10290   5.980   0.559   1.802 -0.4976 -0.0114  0.0949
 3233SOL    HW110291   5.889   0.572   1.778 -0.0864 -0.0449 -1.5870
 3233SOL    HW210292   6.026   0.634   1.765  0.4804 -1.2133 -1.2449
 3234SOL     OW10293   2.122   2.482   3.166  0.4453  0.1000  0.0721
 3234SOL    HW110294   2.159   2.550   3.223 -0.1928  0.5233 -0.0092
 3234SOL    HW210295   2.035   2.464   3.204  0.1547  0.1408 -0.5646
 3235SOL     OW10296   0.476   5.129   2.968  0.0353  0.2110  0.1117
 3235SOL    HW110297   0.461   5.042   3.004  0.9800 -0.2622 -0.5769
 3235SOL    HW210298   0.571   5.138   2.966 -0.0512  1.2588  0.1634
 3236SOL     OW10299   0.640   3.593   0.327 -0.0279  0.0788  0.7260
 3236SOL    HW110300   0.556   3.594   0.280 -0.1500  2.4781  0.8995
 3236SOL    HW210301   0.618   3.616   0.417  0.6859 -0.6623  1.1069
 3237SOL     OW10302   4.232   4.247   1.177  0.2885 -0.5682  0.0994
 3237SOL    HW110303   4.159   4.308   1.183  0.0719 -0.6853 -1.0889
 3237SOL    HW210304   4.194   4.163   1.204  0.4145 -0.3342  1.0592
 3238SOL     OW10305   3.935   3.012   0.913  0.1162 -0.0272 -0.6968
 3238SOL    HW110306   3.911   2.921   0.894  0.5095 -0.1655 -0.5530
 3238SOL    HW210307   3.909   3.060   0.835  0.4337 -0.3624 -1.0188
 3239SOL     OW10308   6.772   1.325   1.841 -0.0803  0.4187 -0.3580
 3239SOL    HW110309   6.863   1.326   1.869  0.2071 -0.5740 -1.2107
 3239SOL    HW210310   6.774   1.304   1.748 -1.1714  0.5427 -0.4321
 3240SOL     OW10311   6.843   4.827   0.634  0.4490  0.5806 -0.4959
 3240SOL    HW110312   6.867   4.918   0.650 -1.9556  0.9987  1.3803
 3240SOL    HW210313   6.848   4.786   0.721 -1.3459 -0.2818 -0.7523
 3241SOL     OW10314   5.406   4.610   1.202 -0.1349 -0.1494 -0.0475
 3241SOL    HW110315   5.318   4.603   1.240 -0.4088 -0.0133 -0.6423
 3241SOL    HW210316   5.391   4.615   1.107  0.4245  1.2761 -0.0914
 3242SOL     OW10317   7.077   0.306   3.225 -0.2042 -0.1805 -0.4043
 3242SOL    HW110318   7.104   0.269   3.309  3.1643  0.4996 -1.0519
 3242SOL    HW210319   6.988   0.337   3.240 -0.5372 -2.0766  2.2182
 3243SOL     OW10320   5.040   0.669   1.894  0.4122  0.0239  0.1778
 3243SOL    HW110321   5.028   0.683   1.988  1.1445  0.5327  0.2031
 3243SOL    HW210322   4.953   0.684   1.856  0.0201 -0.6018  0.8127
 3244SOL     OW10323   7.355   4.207   1.804 -0.2792  0.6927 -0.1270
 3244SOL    HW110324   7.407   4.241   1.876 -1.5609  0.8034  0.7842
 3244SOL    HW210325   7.332   4.284   1.752 -0.1245  0.7286 -0.1421
 3245SOL     OW10326   1.850   2.134   0.762 -0.3749 -0.6922 -0.0429
 3245SOL    HW110327   1.876   2.060   0.707 -0.9927 -1.7133  0.9920
 3245SOL    HW210328   1.810   2.196   0.701 -0.6802 -1.6137 -0.8008
 3246SOL     OW10329   1.132   1.423   0.928 -0.2813 -0.8724 -0.2680
 3246SOL    HW110330   1.036   1.419   0.936 -0.8513  1.7169 -3.5377
 3246SOL    HW210331   1.152   1.368   0.852  0.7075 -0.7340 -0.1187
 3247SOL     OW10332   0.818   4.265   0.451  0.3244  0.6773  0.3802
 3247SOL    HW110333   0.806   4.202   0.379 -0.5970  2.1729 -0.8313
 3247SOL    HW210334   0.750   4.330   0.438  1.6356  2.2949  1.2010
 3248SOL     OW10335   1.202   1.039   1.462  0.5423 -0.2445  0.2431
 3248SOL    HW110336   1.233   0.965   1.410  3.4187 -0.1571  1.6220
 3248SOL    HW210337   1.183   1.002   1.548 -1.4489  0.0768 -0.0193
 3249SOL     OW10338   5.285   4.585   0.590  0.4070 -0.2445  0.2910
 3249SOL    HW110339   5.210   4.589   0.530  0.7353  0.7845 -0.0805
 3249SOL    HW210340   5.260   4.643   0.663  0.2076 -1.1160  0.9343
 3250SOL     OW10341   0.193   2.872   3.431  0.2059  0.3136  0.1104
 3250SOL    HW110342   0.108   2.914   3.432 -0.5140 -1.0526 -0.6376
 3250SOL    HW210343   0.237   2.903   3.510 -1.4309  0.1625  1.1217
 3251SOL     OW10344   4.178   4.774   1.969 -0.6443 -0.0225  0.5476
 3251SOL    HW110345   4.167   4.791   2.063  1.6523 -1.1223  1.0706
 3251SOL    HW210346   4.204   4.682   1.964  4.2345  1.1354 -0.6157
 3252SOL     OW10347   2.333   4.192   1.506  0.3705  0.0696  0.2494
 3252SOL    HW110348   2.263   4.133   1.481 -0.2265  0.1711  1.5864
 3252SOL    HW210349   2.376   4.148   1.580 -0.6411  1.6496  1.8520
 3253SOL     OW10350   4.280   4.218   3.455  0.6580 -0.2224 -0.1985
 3253SOL    HW110351   4.280   4.306   3.419 -1.2429 -0.6313 -1.3976
 3253SOL    HW210352   4.371   4.190   3.453  1.1326  1.3003 -0.8538
 3254SOL     OW10353   5.646   1.507   1.392  0.5490  0.9305 -0.8271
 3254SOL    HW110354   5.677   1.587   1.349 -1.9257  2.1319 -0.5405
 3254SOL    HW210355   5.585   1.468   1.329 -1.2334  1.4082  0.4970
 3255SOL     OW10356   6.784   1.260   1.546 -0.3421 -0.1066  0.0950
 3255SOL    HW110357   6.786   1.165   1.533  0.3102 -0.3685  1.8446
 3255SOL    HW210358   6.737   1.294   1.470 -0.6633 -1.8378 -0.5179
 3256SOL     OW10359   0.807   1.238   1.294  0.1436  0.8199  0.9345
 3256SOL    HW110360   0.846   1.158   1.258 -2.2351  0.4399 -1.0683
 3256SOL    HW210361   0.839   1.242   1.384  0.5646 -2.2403  1.0325
 3257SOL     OW10362   5.186   0.247   2.072  0.2543 -0.1404  0.7700
 3257SOL    HW110363   5.191   0.294   2.155  0.0830 -1.0629  1.3262
 3257SOL    HW210364   5.105   0.278   2.031 -0.7717 -1.1683  1.9184
 3258SOL     OW10365   0.080   3.150   1.130 -0.2585  0.1387  0.1005
 3258SOL    HW110366   0.107   3.125   1.218 -1.2222 -2.5729 -0.2927
 3258SOL    HW210367   0.134   3.098   1.072 -0.2386  1.2537 -0.9296
 3259SOL     OW10368   3.167   3.264   3.113 -0.0627 -0.1865  0.0966
 3259SOL    HW110369   3.137   3.336   3.058  1.2089 -0.2079 -0.6874
 3259SOL    HW210370   3.189   3.305   3.196  0.7971  0.3925 -0.3928
 3260SOL     OW10371   1.507   0.043   1.927 -0.7404 -0.5723 -0.1221
 3260SOL    HW110372   1.445  -0.025   1.955 -0.7013 -0.0469  1.3399
 3260SOL    HW210373   1.578   0.038   1.991 -1.2804  1.5748  0.7223
 3261SOL     OW10374   4.401   3.798   1.876 -0.0815  0.2109  0.1147
 3261SOL    HW110375   4.400   3.850   1.956  0.6046  0.7409 -0.2161
 3261SOL    HW210376   4.324   3.826   1.828 -0.0031  0.5396  0.1808
 3262SOL     OW10377   3.125   2.389   2.908 -0.3445 -0.2193 -0.4481
 3262SOL    HW110378   3.213   2.385   2.870 -0.6621 -0.7968 -1.1432
 3262SOL    HW210379   3.131   2.458   2.974  0.6048 -0.1825 -0.5546
 3263SOL     OW10380   4.644   2.379   2.969 -0.3465 -0.3333 -0.1534
 3263SOL    HW110381   4.649   2.300   3.022  1.0639 -0.5583 -0.5771
 3263SOL    HW210382   4.629   2.347   2.880  0.2282 -0.1372 -0.3257
 3264SOL     OW10383   1.826   3.869   3.116 -0.3490 -0.1398 -0.1488
 3264SOL    HW110384   1.824   3.958   3.081 -0.7662 -0.8996 -2.1580
 3264SOL    HW210385   1.918   3.852   3.135 -0.2589  0.6871  0.1984
 3265SOL     OW10386   5.187   4.650   1.037  0.2461 -0.2541  0.1746
 3265SOL    HW110387   5.132   4.572   1.041  1.5446 -1.1838  0.6151
 3265SOL    HW210388   5.152   4.708   1.105 -0.0157 -0.9386  0.6332
 3266SOL     OW10389   7.098   2.246   2.499 -0.1191 -0.4284  0.1038
 3266SOL    HW110390   7.128   2.333   2.473  0.7642 -0.2156  1.6749
 3266SOL    HW210391   7.060   2.208   2.420 -0.3039  1.2884 -0.6697
 3267SOL     OW10392   5.747   2.281   3.043 -0.1121 -0.2257 -0.3386
 3267SOL    HW110393   5.676   2.299   3.105 -0.0879 -0.3495 -0.2740
 3267SOL    HW210394   5.803   2.218   3.089 -0.1105 -0.3409 -0.4985
 3268SOL     OW10395   1.607   0.943   0.799  0.1976  0.0514  0.1438
 3268SOL    HW110396   1.555   0.868   0.770  0.6525 -0.2903  0.2097
 3268SOL    HW210397   1.613   0.999   0.721  2.6188 -1.5227 -0.9273
 3269SOL     OW10398   6.324   4.068   0.608 -0.3553  0.4948  0.8805
 3269SOL    HW110399   6.325   4.009   0.532  0.3482  1.2847  0.2538
 3269SOL    HW210400   6.276   4.145   0.578 -1.6985  0.0639  1.8560
 3270SOL     OW10401   6.373   2.720   0.421 -0.0605  0.1319  0.0847
 3270SOL    HW110402   6.380   2.666   0.500 -0.2259  0.1426  0.1066
 3270SOL    HW210403   6.464   2.738   0.396  0.0002 -0.6326 -0.2545
 3271SOL     OW10404   0.785   4.475   1.026 -1.2899 -0.0491  0.1362
 3271SOL    HW110405   0.870   4.501   0.990 -1.3671 -1.8269 -1.4883
 3271SOL    HW210406   0.807   4.429   1.107 -0.8132  0.6659  0.4219
 3272SOL     OW10407   2.364   4.035   0.162 -0.0599 -0.0624 -0.8808
 3272SOL    HW110408   2.361   4.051   0.257  0.6193  0.6259 -0.9766
 3272SOL    HW210409   2.370   3.939   0.155  0.6599 -0.0754 -0.2118
 3273SOL     OW10410   6.309   3.949   1.630 -0.4978 -0.1496  0.0807
 3273SOL    HW110411   6.330   3.856   1.631 -2.5733 -0.7402 -2.2287
 3273SOL    HW210412   6.391   3.991   1.605 -0.4620 -1.8357 -3.2126
 3274SOL     OW10413   5.328   2.071   1.392  0.2606  0.1014 -0.1911
 3274SOL    HW110414   5.302   2.020   1.316  2.9659  0.6649 -1.6501
 3274SOL    HW210415   5.260   2.138   1.401 -0.4375 -0.3651 -1.7101
 3275SOL     OW10416   6.112   3.637   1.982 -0.0378  0.2824 -0.0302
 3275SOL    HW110417   6.164   3.710   2.016 -0.8926  1.2670 -0.7645
 3275SOL    HW210418   6.043   3.625   2.048  0.6814 -0.5707  0.6006
 3276SOL     OW10419   2.988   0.562   2.774 -0.4875  0.4254  0.2488
 3276SOL    HW110420   2.894   0.548   2.762 -0.1224 -0.8388 -1.5659
 3276SOL    HW210421   3.029   0.489   2.729  1.3919  1.1435  0.6985
 3277SOL     OW10422   3.124   1.154   1.178  0.9099 -0.0941  0.2628
 3277SOL    HW110423   3.132   1.059   1.179  3.1915  0.0207  1.4875
 3277SOL    HW210424   3.162   1.180   1.094  1.0993 -0.2371  0.3030
 3278SOL     OW10425   0.451   2.675   0.865  0.4638 -0.0213  0.6819
 3278SOL    HW110426   0.417   2.647   0.950 -1.5681 -0.9502 -0.3753
 3278SOL    HW210427   0.374   2.685   0.810  1.6935  1.0217 -0.9614
 3279SOL     OW10428   1.227   2.487   0.281 -0.0398 -0.1741 -0.3403
 3279SOL    HW110429   1.254   2.416   0.340 -1.5402  0.0192  0.6356
 3279SOL    HW210430   1.170   2.444   0.216  0.0665 -0.0758 -0.4984
 3280SOL     OW10431   5.878   2.752   2.996  0.0326 -0.4389  0.7160
 3280SOL    HW110432   5.796   2.798   3.015  0.0605  0.6420 -1.4064
 3280SOL    HW210433   5.850   2.664   2.972 -0.5031 -0.1560  0.2709
 3281SOL     OW10434   6.333   1.366   1.579  0.0882  0.1066 -0.7431
 3281SOL    HW110435   6.254   1.313   1.569 -0.8667  1.2638  0.2508
 3281SOL    HW210436   6.375   1.331   1.658  0.0928  0.0593 -0.7666
 3282SOL     OW10437   1.790   2.521   2.076  0.1530 -0.5475 -0.0920
 3282SOL    HW110438   1.826   2.487   1.994  0.5836  0.6444 -0.4242
 3282SOL    HW210439   1.703   2.552   2.053 -0.0219 -0.9231  0.0741
 3283SOL     OW10440   3.943   2.189   0.818  0.1973 -0.0237 -0.1794
 3283SOL    HW110441   3.892   2.270   0.814 -0.8608 -0.6170  0.5375
 3283SOL    HW210442   3.882   2.121   0.787  0.1979 -0.8852  1.5373
 3284SOL     OW10443   5.702   0.406   0.403 -0.3481  0.3790  0.2519
 3284SOL    HW110444   5.656   0.330   0.366  0.4529 -0.1820  0.3685
 3284SOL    HW210445   5.767   0.367   0.462  0.4078  1.1393 -0.0584
 3285SOL     OW10446   0.579   1.859   2.529 -0.3418 -0.4888  0.1392
 3285SOL    HW110447   0.593   1.774   2.571  0.2550 -0.0624  0.8186
 3285SOL    HW210448   0.487   1.880   2.546  0.3336  0.5627  2.9563
 3286SOL     OW10449   0.768   1.685   2.795 -0.5041 -0.2844  0.3887
 3286SOL    HW110450   0.754   1.608   2.741  1.1509  0.0073 -0.5258
 3286SOL    HW210451   0.819   1.654   2.869  2.6895  0.2986 -1.3894
 3287SOL     OW10452   2.435   5.129   0.193 -0.3639  0.1649 -0.1079
 3287SOL    HW110453   2.397   5.041   0.199 -1.1213  0.5390  0.7297
 3287SOL    HW210454   2.485   5.139   0.274 -3.5114  1.9524  1.8273
 3288SOL     OW10455   2.612   1.853   0.102 -0.1838  0.8869  0.3745
 3288SOL    HW110456   2.580   1.942   0.116 -0.2507  0.9262 -0.0155
 3288SOL    HW210457   2.634   1.821   0.189 -0.3193  1.2261  0.5331
 3289SOL     OW10458   4.222   2.913   3.135 -0.0691 -0.6282  0.0809
 3289SOL    HW110459   4.191   2.973   3.203 -0.5444  0.8557 -1.3976
 3289SOL    HW210460   4.142   2.879   3.095  0.1296  0.5793 -1.4673
 3290SOL     OW10461   6.415   3.484   0.364 -0.4818  0.4107  0.2622
 3290SOL    HW110462   6.494   3.528   0.395  1.3923  0.4859 -3.9452
 3290SOL    HW210463   6.435   3.390   0.371 -1.7369  0.2757  2.8936
 3291SOL     OW10464   4.388   2.635   0.616  0.6025 -0.6671  0.6509
 3291SOL    HW110465   4.301   2.604   0.591 -0.2186  1.6768  0.3915
 3291SOL    HW210466   4.445   2.611   0.543 -0.0479 -1.2513  0.3301
 3292SOL     OW10467   3.736   5.047   0.349  0.0273 -0.0286 -0.0513
 3292SOL    HW110468   3.776   5.134   0.348 -0.3354  0.1500  0.7367
 3292SOL    HW210469   3.804   4.989   0.314  0.9807  0.2789  1.2181
 3293SOL     OW10470   6.658   2.729   3.126 -0.0724  0.1773 -0.4436
 3293SOL    HW110471   6.693   2.657   3.073  0.7448 -0.3065  0.6958
 3293SOL    HW210472   6.641   2.799   3.064 -1.5095 -1.2025 -1.6967
 3294SOL     OW10473   4.449   5.213   1.834  0.2079 -0.5704 -0.1681
 3294SOL    HW110474   4.368   5.200   1.784  1.1446 -1.1741 -1.6095
 3294SOL    HW210475   4.443   5.302   1.867 -1.8418 -1.1928  1.2986
 3295SOL     OW10476   5.899   5.144   2.104 -0.2568  0.3036  0.3467
 3295SOL    HW110477   5.990   5.174   2.109 -0.4838  1.1589 -0.3433
 3295SOL    HW210478   5.848   5.218   2.136 -0.7719  0.2749 -0.3699
 3296SOL     OW10479   7.099   2.124   2.222  0.1574  0.0005 -0.3586
 3296SOL    HW110480   7.151   2.053   2.258 -0.3492  0.1988  0.7982
 3296SOL    HW210481   7.156   2.167   2.158  1.6111  0.5403  1.2396
 3297SOL     OW10482   3.217   4.773   2.820  0.2202 -0.2112 -0.6754
 3297SOL    HW110483   3.205   4.868   2.826 -0.2367 -0.3236  0.4447
 3297SOL    HW210484   3.312   4.762   2.812  0.2209  0.3611 -1.6686
 3298SOL     OW10485   5.810   2.131   1.013 -0.3394 -0.0812 -0.0273
 3298SOL    HW110486   5.747   2.197   1.043  0.4768  0.5176  0.3881
 3298SOL    HW210487   5.771   2.097   0.932 -1.2324  0.2228  0.2585
 3299SOL     OW10488   2.406   4.186   2.617 -0.3471  0.2876  0.2155
 3299SOL    HW110489   2.410   4.215   2.526 -0.5807  0.1322  0.1556
 3299SOL    HW210490   2.356   4.105   2.614 -1.3016  0.8471  0.6158
 3300SOL     OW10491   5.026   1.880   3.319  0.1656 -0.6108 -0.2451
 3300SOL    HW110492   5.008   1.786   3.320  1.9106 -1.0668 -2.3238
 3300SOL    HW210493   5.061   1.896   3.231 -0.5148  2.0925 -0.1079
 3301SOL     OW10494   1.933   0.055   1.318 -0.2018  0.6804  0.2451
 3301SOL    HW110495   1.982  -0.009   1.266 -1.3844  1.2921 -1.7565
 3301SOL    HW210496   1.890   0.004   1.386  0.8326 -0.2668  0.2128
 3302SOL     OW10497   1.159   5.282   2.233 -0.1632  0.5312 -0.0445
 3302SOL    HW110498   1.145   5.195   2.269  1.0589 -0.2861 -1.4356
 3302SOL    HW210499   1.187   5.335   2.308  0.7374 -0.7010  0.5245
 3303SOL     OW10500   1.403   3.781   2.337 -0.0261 -0.4111  0.4475
 3303SOL    HW110501   1.432   3.710   2.393 -0.0600  0.8416  2.1198
 3303SOL    HW210502   1.324   3.749   2.295  0.0719 -1.4202  1.0138
 3304SOL     OW10503   2.927   4.541   0.631  0.1745  0.2798  0.1423
 3304SOL    HW110504   2.994   4.495   0.581 -0.2509  0.2601 -0.4188
 3304SOL    HW210505   2.844   4.510   0.595 -0.1539 -0.0682  1.1597
 3305SOL     OW10506   6.498   3.207   1.486 -0.0886 -0.1566  0.4458
 3305SOL    HW110507   6.441   3.271   1.528 -0.0038 -0.5024  1.0983
 3305SOL    HW210508   6.449   3.178   1.409 -0.1731  0.6073  0.2099
 3306SOL     OW10509   1.313   4.970   1.685  0.5029 -0.3804 -0.1221
 3306SOL    HW110510   1.233   5.002   1.644  1.8402  2.3633 -0.8350
 3306SOL    HW210511   1.382   4.991   1.622  2.0189 -1.0351  1.2379
 3307SOL     OW10512   0.806   2.507   2.953  0.1936 -0.2565 -0.4099
 3307SOL    HW110513   0.753   2.495   2.874 -1.9260 -0.5764  0.9850
 3307SOL    HW210514   0.857   2.426   2.959 -1.5566 -1.3990 -0.1007
 3308SOL     OW10515   0.991   4.817   1.233 -0.6126  0.5458  0.6064
 3308SOL    HW110516   1.071   4.852   1.272  1.0200  0.5015 -2.4071
 3308SOL    HW210517   1.003   4.722   1.235 -1.6727  0.3995  2.0962
 3309SOL     OW10518   5.254   0.341   0.305 -0.2836  0.0250  0.1870
 3309SOL    HW110519   5.301   0.369   0.383 -1.6975 -2.0244  1.8567
 3309SOL    HW210520   5.165   0.375   0.316 -0.5112 -0.3125 -0.5158
 3310SOL     OW10521   4.127   2.217   3.060  0.2118  0.3686  0.3195
 3310SOL    HW110522   4.087   2.220   3.148 -1.1420 -1.0455 -0.2000
 3310SOL    HW210523   4.105   2.302   3.021 -0.6072  0.3775  0.7716
 3311SOL     OW10524   7.145   2.288   1.355  0.3833  0.3953 -0.3348
 3311SOL    HW110525   7.197   2.230   1.410  0.7984  0.4398 -0.6697
 3311SOL    HW210526   7.081   2.231   1.313 -1.1134  0.6172  1.5291
 3312SOL     OW10527   5.894   4.732   1.743 -0.3276  0.1688 -0.1793
 3312SOL    HW110528   5.823   4.668   1.747 -2.1597  2.1142  0.5547
 3312SOL    HW210529   5.961   4.697   1.802  0.2516 -2.6475 -2.3374
 3313SOL     OW10530   1.178   0.916   1.708  0.4116  0.2148 -0.7614
 3313SOL    HW110531   1.087   0.894   1.686  1.0847 -1.1109 -2.4146
 3313SOL    HW210532   1.219   0.832   1.728  1.2043  0.8435  0.4330
 3314SOL     OW10533   0.500   4.475   1.760 -0.0678  0.4307  0.6194
 3314SOL    HW110534   0.580   4.447   1.714 -0.8740 -0.0469 -0.5208
 3314SOL    HW210535   0.440   4.500   1.691  0.4323  4.8415  1.4997
 3315SOL     OW10536   3.050   4.434   3.303  0.1598 -0.4142 -0.1943
 3315SOL    HW110537   3.123   4.396   3.351  0.1529  1.7049  1.6823
 3315SOL    HW210538   3.088   4.507   3.254 -0.1991 -1.2709 -1.8069
 3316SOL     OW10539   4.765   1.334   1.373  0.3600 -0.2839  0.0548
 3316SOL    HW110540   4.750   1.329   1.467  0.5650 -0.1399  0.0963
 3316SOL    HW210541   4.839   1.394   1.364  2.2477 -2.5004 -0.0297
 3317SOL     OW10542   2.601   3.658   1.724  0.0640  0.2809  0.3215
 3317SOL    HW110543   2.632   3.749   1.725 -2.2766  1.1628  0.1269
 3317SOL    HW210544   2.637   3.621   1.643  0.2104  1.3675 -0.1294
 3318SOL     OW10545   6.499   1.859   3.001  0.0712 -0.5347 -0.0092
 3318SOL    HW110546   6.490   1.765   2.987  0.9217 -0.6871  0.3826
 3318SOL    HW210547   6.582   1.868   3.049 -0.0410  0.4048  0.0259
 3319SOL     OW10548   1.397   0.100   3.178  0.4112  0.1873 -0.1374
 3319SOL    HW110549   1.463   0.036   3.205  0.8565  0.3058 -0.9105
 3319SOL    HW210550   1.318   0.048   3.163  0.6734 -0.1372 -0.4138
 3320SOL     OW10551   2.890   2.445   1.096 -1.2384 -0.3342  0.1057
 3320SOL    HW110552   2.895   2.360   1.140  0.9001 -0.3656 -0.1028
 3320SOL    HW210553   2.884   2.508   1.168  0.2774 -0.5051  0.4152
 3321SOL     OW10554   2.359   4.002   2.906  0.1361  0.2285  0.2636
 3321SOL    HW110555   2.431   3.944   2.930 -0.1817 -0.3363 -0.1281
 3321SOL    HW210556   2.290   3.943   2.877  0.9322  0.8304 -3.3246
 3322SOL     OW10557   6.090   2.598   2.457  0.5807 -0.0218 -0.6104
 3322SOL    HW110558   6.083   2.656   2.532 -0.7158  0.2104 -0.8872
 3322SOL    HW210559   6.015   2.621   2.402  0.6630 -1.2107 -1.2460
 3323SOL     OW10560   4.943   4.245   0.248 -0.5112 -0.2775  0.2588
 3323SOL    HW110561   4.985   4.324   0.214  0.3319 -0.9932 -0.4145
 3323SOL    HW210562   5.009   4.205   0.304 -0.7412 -0.7673  0.1859
 3324SOL     OW10563   6.700   0.859   2.154  0.0879  0.2476  0.2361
 3324SOL    HW110564   6.761   0.785   2.151  3.0053  2.5173 -2.3843
 3324SOL    HW210565   6.751   0.931   2.190 -2.1988  1.4524  1.2677
 3325SOL     OW10566   6.037   2.593   0.577  0.3667 -0.3707  0.3257
 3325SOL    HW110567   6.114   2.574   0.631  0.9983  0.0062 -0.4264
 3325SOL    HW210568   6.050   2.542   0.497  0.1204  0.1324 -0.0389
 3326SOL     OW10569   0.400   2.576   2.225 -0.2729  0.1313 -0.3164
 3326SOL    HW110570   0.411   2.618   2.140  1.2006 -0.9395 -0.6998
 3326SOL    HW210571   0.487   2.576   2.264 -0.6051 -0.8637  0.4839
 3327SOL     OW10572   7.307   2.529   1.758 -0.8103 -0.1734  0.3476
 3327SOL    HW110573   7.324   2.444   1.799 -0.5848 -0.3874 -0.1725
 3327SOL    HW210574   7.258   2.508   1.679 -2.1639  0.3256  1.0338
 3328SOL     OW10575   5.871   2.831   2.071 -0.0975  0.0219 -0.0037
 3328SOL    HW110576   5.848   2.866   1.985 -0.2788  0.1056  0.0791
 3328SOL    HW210577   5.793   2.783   2.099 -0.2232  0.4274  0.3416
 3329SOL     OW10578   0.609   1.179   2.647  0.1762 -0.8382  0.0178
 3329SOL    HW110579   0.659   1.137   2.577 -0.8177 -1.4863 -0.3270
 3329SOL    HW210580   0.674   1.222   2.701  0.9657 -0.1776 -1.4066
 3330SOL     OW10581   6.161   3.992   0.264  0.0710  0.4665 -0.1700
 3330SOL    HW110582   6.086   4.044   0.292  0.1708  0.5768 -0.1064
 3330SOL    HW210583   6.182   4.025   0.176 -1.5760 -1.3161 -1.3044
 3331SOL     OW10584   3.465   1.805   0.070  0.1181 -0.3892 -0.3247
 3331SOL    HW110585   3.383   1.763   0.094  0.0033 -0.5278 -0.9364
 3331SOL    HW210586   3.458   1.819  -0.025 -0.1427  1.6170 -0.0532
 3332SOL     OW10587   3.428   4.342   0.174 -0.4795  0.1929 -0.1548
 3332SOL    HW110588   3.462   4.253   0.161 -0.7747  0.2343 -1.3108
 3332SOL    HW210589   3.351   4.331   0.229  0.0459 -0.1458  0.5445
 3333SOL     OW10590   6.233   0.913   1.566 -0.1447 -0.0421 -0.3003
 3333SOL    HW110591   6.214   0.985   1.506  0.3384 -1.6834 -2.5731
 3333SOL    HW210592   6.324   0.890   1.549 -0.3136 -1.2694  0.2714
 3334SOL     OW10593   1.111   4.419   0.465 -0.3800 -0.0014  0.1812
 3334SOL    HW110594   1.084   4.474   0.392 -0.5048 -0.7680 -0.3580
 3334SOL    HW210595   1.032   4.410   0.519 -0.5978 -0.3750 -0.1962
 3335SOL     OW10596   5.098   2.017   1.015 -0.1976  0.2416 -0.2456
 3335SOL    HW110597   5.048   2.096   1.036  1.0421  0.5822  1.8191
 3335SOL    HW210598   5.035   1.946   1.020 -1.4243  1.0911 -2.5601
 3336SOL     OW10599   5.743   4.507   1.753 -0.3254  0.2887  0.3330
 3336SOL    HW110600   5.755   4.463   1.668 -0.1519 -0.4974  0.7519
 3336SOL    HW210601   5.792   4.453   1.814  0.2861  1.3512  0.7979
 3337SOL     OW10602   6.739   1.323   3.369 -0.2172 -0.1265  0.2834
 3337SOL    HW110603   6.718   1.307   3.277 -1.5156 -1.8350  0.8147
 3337SOL    HW210604   6.692   1.404   3.391 -0.9114 -0.3728 -0.2541
 3338SOL     OW10605   3.795   4.897   2.084  0.3353 -0.4197 -0.2325
 3338SOL    HW110606   3.829   4.979   2.119  0.0265 -0.8319  1.0839
 3338SOL    HW210607   3.870   4.838   2.084  0.6440 -0.0499 -1.5212
 3339SOL     OW10608   3.451   4.260   2.559 -0.0474 -0.2671  0.7435
 3339SOL    HW110609   3.525   4.307   2.598 -0.0129 -0.4231  0.8638
 3339SOL    HW210610   3.487   4.218   2.481 -0.5015  1.5819 -0.5672
 3340SOL     OW10611   2.399   3.985   0.785 -0.0763 -0.6736  0.0208
 3340SOL    HW110612   2.364   4.074   0.790  1.3949 -0.0791 -0.0038
 3340SOL    HW210613   2.330   3.935   0.740 -1.3799  0.1867  0.9792
 3341SOL     OW10614   0.735   3.595   3.370 -0.0635  0.1912 -0.5849
 3341SOL    HW110615   0.645   3.587   3.400  0.1320 -1.0863 -0.2554
 3341SOL    HW210616   0.760   3.506   3.345  1.4184  0.3297  0.2601
 3342SOL     OW10617   1.369   4.764   0.598  0.6856 -0.3855 -0.0372
 3342SOL    HW110618   1.293   4.743   0.544  0.8824 -0.6022 -0.2339
 3342SOL    HW210619   1.388   4.856   0.577 -1.9927  1.0741  3.0344
 3343SOL     OW10620   3.984   0.094   2.139 -0.1970 -0.0277 -0.9764
 3343SOL    HW110621   4.014   0.182   2.119 -2.0411  0.4439 -1.8348
 3343SOL    HW210622   4.055   0.037   2.110  1.4065  1.1865  0.4210
 3344SOL     OW10623   7.086   0.334   1.888  0.0207 -0.4092 -0.5884
 3344SOL    HW110624   6.997   0.305   1.865  0.3268 -0.3027 -1.9913
 3344SOL    HW210625   7.140   0.255   1.879  0.0508 -0.5258  0.4799
 3345SOL     OW10626   0.135   3.406   2.767  0.6745  0.6449 -0.2364
 3345SOL    HW110627   0.231   3.409   2.763  0.6595  0.7496 -0.5466
 3345SOL    HW210628   0.107   3.416   2.676  0.3367  1.7589 -0.0251
 3346SOL     OW10629   5.326   4.006   0.526  0.3052  0.0199  0.2984
 3346SOL    HW110630   5.324   4.101   0.538  0.4187  0.0137  0.3682
 3346SOL    HW210631   5.342   3.971   0.614  0.2338 -0.0640  0.2775
 3347SOL     OW10632   0.006   2.800   1.169 -0.1356 -0.1043 -0.3485
 3347SOL    HW110633  -0.036   2.820   1.253  1.3148 -0.0463  0.4069
 3347SOL    HW210634  -0.064   2.809   1.104 -1.0676  0.8203  0.7304
 3348SOL     OW10635   1.668   1.445   0.035 -0.3668 -0.1832  0.2699
 3348SOL    HW110636   1.710   1.378  -0.019 -0.2425  0.9996 -1.1703
 3348SOL    HW210637   1.736   1.471   0.098  0.0236 -0.4836 -0.0206
 3349SOL     OW10638   6.350   5.199   2.438 -0.0715 -0.1353  0.0051
 3349SOL    HW110639   6.381   5.260   2.371  1.4892  0.5101  1.2593
 3349SOL    HW210640   6.429   5.166   2.480 -0.9924 -0.9100  1.2147
 3350SOL     OW10641   6.434   5.327   0.885  0.4892  0.6455 -0.0068
 3350SOL    HW110642   6.369   5.377   0.934 -0.2151 -0.5787  0.3695
 3350SOL    HW210643   6.437   5.368   0.799  0.1345  1.4806  0.3659
 3351SOL     OW10644   7.008   3.103   0.960  0.5398  0.6101 -0.4668
 3351SOL    HW110645   7.082   3.093   0.899  0.1685 -0.2502 -0.7910
 3351SOL    HW210646   6.931   3.085   0.907  0.2559 -1.0317  0.4152
 3352SOL     OW10647   7.079   3.999   1.965  0.2118  0.0885  0.4335
 3352SOL    HW110648   7.056   3.983   2.056 -1.1448 -0.4239  0.0306
 3352SOL    HW210649   7.156   4.056   1.969  0.3183 -0.1219  1.8850
 3353SOL     OW10650   1.784   3.095   2.651  0.2522  0.5873 -0.2226
 3353SOL    HW110651   1.745   3.120   2.735 -1.5141 -1.2213 -0.4137
 3353SOL    HW210652   1.865   3.050   2.675 -1.4848 -2.2643  0.8252
 3354SOL     OW10653   6.030   2.312   1.892 -0.5800 -0.3952  0.1755
 3354SOL    HW110654   6.116   2.309   1.934 -0.8239 -0.8734  0.6497
 3354SOL    HW210655   5.977   2.251   1.943 -2.3232  2.6879  2.3527
 3355SOL     OW10656   2.515   1.543   2.130 -0.6238  0.2631 -0.2021
 3355SOL    HW110657   2.460   1.528   2.053 -0.3223  1.0774 -0.5850
 3355SOL    HW210658   2.579   1.472   2.127  0.3791  1.1766 -1.6198
 3356SOL     OW10659   2.269   4.767   1.747 -0.8185  0.2558  0.4234
 3356SOL    HW110660   2.348   4.721   1.775  0.0248  0.9461 -0.7233
 3356SOL    HW210661   2.273   4.852   1.789 -1.6233 -0.1561  1.3705
 3357SOL     OW10662   4.006   2.895   2.279 -0.0639 -0.2340 -0.3278
 3357SOL    HW110663   3.976   2.829   2.215 -0.9483 -0.4557  0.2879
 3357SOL    HW210664   3.999   2.978   2.232 -1.4409 -0.3058 -0.3127
 3358SOL     OW10665   2.012   3.995   2.493  0.5615  0.1938  0.3132
 3358SOL    HW110666   2.001   4.067   2.430  1.1894 -0.5853 -0.7110
 3358SOL    HW210667   1.925   3.954   2.496  0.0873  1.2084  1.2035
 3359SOL     OW10668   0.454   2.636   2.548 -0.2352  0.2122  0.1095
 3359SOL    HW110669   0.439   2.716   2.499 -0.4133  0.0777 -0.0538
 3359SOL    HW210670   0.495   2.666   2.630  1.9364  0.2834 -0.9386
 3360SOL     OW10671   0.039   5.232   3.425 -0.1172  0.3231 -0.1378
 3360SOL    HW110672   0.117   5.219   3.372 -1.3845  0.8407 -2.2293
 3360SOL    HW210673   0.053   5.178   3.503  2.1039  0.0748 -0.6556
 3361SOL     OW10674   0.932   0.983   0.648 -0.3320  0.2560 -0.9013
 3361SOL    HW110675   0.987   0.912   0.682  0.5706  1.1821 -0.3561
 3361SOL    HW210676   0.917   0.959   0.556  2.2109  0.6322 -1.5021
 3362SOL     OW10677   5.846   1.911   0.397  0.0187  1.0124  0.3404
 3362SOL    HW110678   5.932   1.871   0.401 -0.7430 -0.8609 -0.8093
 3362SOL    HW210679   5.850   1.983   0.460  1.9470  0.0959  1.3409
 3363SOL     OW10680   2.389   3.678   1.057 -0.3356  0.9133 -0.2597
 3363SOL    HW110681   2.371   3.728   1.137  0.1163  1.5995 -0.5717
 3363SOL    HW210682   2.324   3.709   0.994  0.3294  1.5881 -0.6409
 3364SOL     OW10683   6.916   5.302   1.842  0.1721 -0.4167 -0.2859
 3364SOL    HW110684   6.863   5.230   1.876 -2.4054  1.0222 -1.0499
 3364SOL    HW210685   6.932   5.359   1.917  2.6507 -1.8943  0.4385
 3365SOL     OW10686   1.111   1.009   0.269  0.3450 -0.3233 -0.5246
 3365SOL    HW110687   1.111   1.104   0.280  1.2230 -0.4153  0.3601
 3365SOL    HW210688   1.156   0.995   0.186 -1.1106  0.0825 -1.4335
 3366SOL     OW10689   0.596   4.861   0.879  0.0792  0.3067 -0.8680
 3366SOL    HW110690   0.647   4.801   0.825  1.4883  2.0636 -1.5653
 3366SOL    HW210691   0.640   4.859   0.964 -0.7494 -0.6970 -0.4373
 3367SOL     OW10692   3.507   1.740   2.750 -0.5219 -0.5472 -0.5775
 3367SOL    HW110693   3.575   1.804   2.728 -0.8471 -0.1905 -0.5529
 3367SOL    HW210694   3.443   1.748   2.679 -0.8310 -0.4611 -0.2890
 3368SOL     OW10695   5.958   4.165   1.203 -0.7765 -0.8822  0.3675
 3368SOL    HW110696   6.018   4.145   1.132  1.0745 -0.1916  1.6463
 3368SOL    HW210697   5.905   4.238   1.170  0.6086 -0.0266 -0.0307
 3369SOL     OW10698   1.947   3.964   0.348 -0.4745 -0.3243  0.3759
 3369SOL    HW110699   1.883   3.932   0.412  0.2300  1.1757  1.9224
 3369SOL    HW210700   1.954   3.894   0.284  0.0315 -2.7269  2.8593
 3370SOL     OW10701   4.204   0.784   2.894 -0.0545  0.1834 -0.5710
 3370SOL    HW110702   4.213   0.844   2.820 -1.7948  0.1164 -0.8833
 3370SOL    HW210703   4.144   0.716   2.863  1.2771 -1.3286  0.0286
 3371SOL     OW10704   7.136   2.973   2.424  0.2433 -0.2972 -0.2063
 3371SOL    HW110705   7.089   3.054   2.407 -1.0396 -1.2193 -1.2203
 3371SOL    HW210706   7.169   2.945   2.339 -0.2536 -1.3861 -0.0564
 3372SOL     OW10707   3.564   5.090   0.560 -0.3049  0.2303  0.4225
 3372SOL    HW110708   3.623   5.065   0.489  0.3540  2.5299  0.0683
 3372SOL    HW210709   3.476   5.078   0.523  0.0210  0.7974 -0.5905
 3373SOL     OW10710   1.607   0.664   2.848 -0.0076 -0.0822 -0.0506
 3373SOL    HW110711   1.607   0.607   2.925  0.4219 -0.2360 -0.1601
 3373SOL    HW210712   1.571   0.747   2.880 -2.7090 -1.0460 -0.4081
 3374SOL     OW10713   3.043   1.982   1.570  0.3161 -0.6350  0.3345
 3374SOL    HW110714   3.042   2.077   1.572  1.1850 -0.6113 -0.1228
 3374SOL    HW210715   3.070   1.960   1.481 -1.0171 -1.3246  0.0742
 3375SOL     OW10716   0.507   3.148   0.255  0.4440 -0.1344 -0.1022
 3375SOL    HW110717   0.501   3.194   0.338 -1.6691  0.1393 -0.3500
 3375SOL    HW210718   0.567   3.200   0.202  1.2545  0.0687  0.9944
 3376SOL     OW10719   1.636   0.738   2.535 -0.3150  0.5176  0.3073
 3376SOL    HW110720   1.704   0.671   2.530  1.1454  1.9812 -4.3560
 3376SOL    HW210721   1.634   0.764   2.628  1.5643 -3.3110  1.6102
 3377SOL     OW10722   1.019   0.043   1.511  0.1258  0.2431 -0.0060
 3377SOL    HW110723   0.980  -0.033   1.469  0.9363 -0.7554  0.9856
 3377SOL    HW210724   1.059   0.092   1.439  1.6209 -1.5067 -0.4515
 3378SOL     OW10725   2.248   4.573   0.978  0.1593 -0.4857  0.1991
 3378SOL    HW110726   2.217   4.484   0.995 -0.4268 -0.0105  1.7911
 3378SOL    HW210727   2.343   4.564   0.970  0.0342 -1.3564 -0.5390
 3379SOL     OW10728   7.343   2.559   0.300  0.2361 -0.1896  0.1567
 3379SOL    HW110729   7.418   2.613   0.323 -0.3994  0.9038 -0.2699
 3379SOL    HW210730   7.301   2.605   0.227 -2.0910  0.4514  1.7672
 3380SOL     OW10731   0.999   3.841   1.235 -0.2936  0.4207 -0.4257
 3380SOL    HW110732   0.918   3.792   1.249 -0.2760  0.7450  0.8807
 3380SOL    HW210733   1.066   3.773   1.227 -0.5743  0.1778 -0.7593
 3381SOL     OW10734   5.346   3.852   1.059  0.1658 -0.2375  0.5357
 3381SOL    HW110735   5.308   3.870   1.145 -0.1415  1.3671  0.0964
 3381SOL    HW210736   5.429   3.808   1.078  0.0671  0.0252  1.6480
 3382SOL     OW10737   4.596   1.359   3.272  0.2171  0.3047  0.3741
 3382SOL    HW110738   4.505   1.342   3.247 -0.3399  1.8615  1.1909
 3382SOL    HW210739   4.647   1.293   3.225 -1.4728 -1.7252  1.2744
 3383SOL     OW10740   1.976   1.261   0.521 -0.4550  0.1303  1.0195
 3383SOL    HW110741   1.927   1.336   0.488 -1.4227 -1.8567 -2.6089
 3383SOL    HW210742   2.048   1.250   0.459  0.6806 -0.9086  2.4686
 3384SOL     OW10743   2.490   3.434   0.933 -0.4354 -0.3767 -0.1111
 3384SOL    HW110744   2.449   3.354   0.965 -0.8122 -0.6523 -1.2307
 3384SOL    HW210745   2.469   3.501   0.998 -0.3481 -1.1270  0.6969
 3385SOL     OW10746   2.766   2.779   1.821  0.5077 -0.0903  0.1454
 3385SOL    HW110747   2.746   2.863   1.781  1.4474  0.1492  0.1524
 3385SOL    HW210748   2.711   2.776   1.899 -0.4494 -0.0361 -0.5121
 3386SOL     OW10749   1.748   1.275   1.995 -0.2509  0.3940 -0.8518
 3386SOL    HW110750   1.684   1.204   1.989  1.1056 -0.8355 -0.9664
 3386SOL    HW210751   1.756   1.308   1.905 -0.6849  0.5391 -0.8409
 3387SOL     OW10752   2.192   4.069   2.005 -0.2086  0.1648  0.0814
 3387SOL    HW110753   2.104   4.034   2.015  0.3056 -0.8458  1.2187
 3387SOL    HW210754   2.210   4.116   2.087  0.8023 -0.7852  0.4258
 3388SOL     OW10755   4.923   4.425   0.622  0.0487 -0.0921  0.0878
 3388SOL    HW110756   4.966   4.502   0.586  0.6233 -0.7732 -0.7283
 3388SOL    HW210757   4.845   4.458   0.665  0.7455  1.0369  0.5161
 3389SOL     OW10758   6.982   1.254   2.344  0.0671  0.1524 -0.2668
 3389SOL    HW110759   6.929   1.327   2.376 -2.7782 -1.2030 -1.5398
 3389SOL    HW210760   7.014   1.284   2.259  0.4309  0.5497  0.0016
 3390SOL     OW10761   5.430   0.698   0.509  0.5810 -0.2415  0.0070
 3390SOL    HW110762   5.406   0.723   0.419  1.1103 -2.5061 -0.8252
 3390SOL    HW210763   5.422   0.779   0.559  0.9742  1.2519 -2.2163
 3391SOL     OW10764   0.607   0.715   0.541 -0.3416 -0.1372 -0.5221
 3391SOL    HW110765   0.619   0.808   0.519 -1.6381  0.8939  2.5756
 3391SOL    HW210766   0.695   0.685   0.565 -0.3484  1.2288  1.4308
 3392SOL     OW10767   1.935   0.997   0.483 -0.0091 -0.0273  0.0709
 3392SOL    HW110768   1.886   0.952   0.552 -0.0523 -0.3843 -0.1935
 3392SOL    HW210769   1.938   1.088   0.512 -0.5837 -0.0565  0.2280
 3393SOL     OW10770   0.680   3.498   0.993  0.0265 -0.1715 -0.1094
 3393SOL    HW110771   0.640   3.428   1.045  0.6237 -0.7132 -0.3643
 3393SOL    HW210772   0.765   3.463   0.967  1.4880  1.6651  1.9500
 3394SOL     OW10773   2.765   1.055   2.623  0.0874 -0.4070  0.4132
 3394SOL    HW110774   2.701   1.118   2.588  1.2423 -0.5424 -2.1596
 3394SOL    HW210775   2.747   0.974   2.576  0.5224 -1.1789  1.5409
 3395SOL     OW10776   0.057   0.574   0.280  0.1036 -0.1202 -0.6247
 3395SOL    HW110777   0.122   0.523   0.329  1.4319  0.8592 -1.2944
 3395SOL    HW210778   0.096   0.584   0.193 -0.6122  1.1282 -0.8155
 3396SOL     OW10779   0.998   4.612   0.247 -0.4239 -0.3457  0.3392
 3396SOL    HW110780   1.012   4.705   0.259  0.8884 -0.2848 -1.3775
 3396SOL    HW210781   0.905   4.599   0.266 -0.3898  1.0895  1.6529
 3397SOL     OW10782   5.409   2.369   2.827 -1.0908  0.2465  0.0825
 3397SOL    HW110783   5.370   2.298   2.777 -1.6528  0.8670 -0.3808
 3397SOL    HW210784   5.334   2.415   2.866 -0.6533 -0.8173  2.3863
 3398SOL     OW10785   4.805   1.920   1.727  0.3915 -0.2209  0.2142
 3398SOL    HW110786   4.888   1.954   1.760 -0.5415 -0.2766  2.8911
 3398SOL    HW210787   4.768   1.991   1.675  1.7454  0.0790 -0.3727
 3399SOL     OW10788   6.479   4.008   3.227  0.1517 -0.3189 -0.0110
 3399SOL    HW110789   6.387   4.008   3.202  0.3333  0.4839 -0.7201
 3399SOL    HW210790   6.503   3.915   3.229 -0.6332 -0.5254  0.0563
 3400SOL     OW10791   7.050   0.957   2.107  0.1915  0.2574 -0.5439
 3400SOL    HW110792   7.043   0.937   2.200 -1.1532  1.0674 -0.4292
 3400SOL    HW210793   7.107   1.034   2.103  1.2474 -0.5152 -0.5157
 3401SOL     OW10794   6.239   2.318   0.984 -0.6459 -0.2264  0.2033
 3401SOL    HW110795   6.230   2.309   1.079 -0.2488 -1.3833  0.1412
 3401SOL    HW210796   6.183   2.250   0.948  1.1040 -1.4481 -0.3351
 3402SOL     OW10797   6.772   3.636   2.086 -0.6461 -0.0260 -0.3428
 3402SOL    HW110798   6.686   3.597   2.099 -0.3537  0.0765  2.6674
 3402SOL    HW210799   6.833   3.564   2.096 -0.3160  0.2352 -0.4637
 3403SOL     OW10800   6.455   0.803   1.166 -0.0967  0.2728  0.4487
 3403SOL    HW110801   6.402   0.848   1.100 -0.1430 -0.6571 -0.1560
 3403SOL    HW210802   6.517   0.870   1.197 -1.1605  1.1776  0.6732
 3404SOL     OW10803   4.245   2.184   2.631 -0.0987  0.3793  0.0660
 3404SOL    HW110804   4.257   2.114   2.696  2.3399 -1.0917 -1.8037
 3404SOL    HW210805   4.193   2.250   2.677  1.2529 -0.6654  3.4261
 3405SOL     OW10806   4.334   1.356   2.111  0.2449  0.0989 -0.1080
 3405SOL    HW110807   4.414   1.397   2.144  2.2349 -1.6339 -2.3895
 3405SOL    HW210808   4.288   1.427   2.067  1.2120  0.8683  0.0719
 3406SOL     OW10809   3.580   3.620   1.294  0.3294  0.6140  0.0918
 3406SOL    HW110810   3.667   3.582   1.298 -0.2465 -0.6989  0.9555
 3406SOL    HW210811   3.532   3.565   1.231 -0.2859  0.3724  0.7516
 3407SOL     OW10812   3.122   0.848   0.151  0.1330  0.4999 -0.6283
 3407SOL    HW110813   3.143   0.941   0.144  0.5833  0.5285  0.7697
 3407SOL    HW210814   3.031   0.846   0.180  0.6627  0.5832  1.1659
 3408SOL     OW10815   0.472   4.108   1.487 -0.4042  0.1452 -0.2762
 3408SOL    HW110816   0.443   4.025   1.449  0.7148  0.1870 -1.2791
 3408SOL    HW210817   0.391   4.152   1.512 -1.0180 -1.1881  0.1676
 3409SOL     OW10818   6.193   3.241   0.714  0.4042 -0.1063 -0.3152
 3409SOL    HW110819   6.182   3.332   0.740  2.4391  0.0898  0.0853
 3409SOL    HW210820   6.110   3.216   0.673 -0.5795  1.5633  0.5915
 3410SOL     OW10821   1.283   3.450   3.414 -0.5187 -0.5901 -0.9918
 3410SOL    HW110822   1.344   3.471   3.344  0.3152 -0.0948 -0.1320
 3410SOL    HW210823   1.201   3.430   3.368  0.2197 -1.1074 -2.1535
 3411SOL     OW10824   1.376   1.470   0.454 -0.4538 -0.4898 -0.0801
 3411SOL    HW110825   1.344   1.381   0.470 -1.0950 -0.0101  1.5443
 3411SOL    HW210826   1.354   1.487   0.362 -2.3107 -1.2433  0.1732
 3412SOL     OW10827   5.269   0.922   1.427 -0.2578  0.2524  0.2456
 3412SOL    HW110828   5.266   0.956   1.516  1.3972  0.0038  0.4205
 3412SOL    HW210829   5.205   0.851   1.427 -1.0576  0.9468  0.9122
 3413SOL     OW10830   6.706   5.298   1.671 -0.0043  0.0848 -0.0973
 3413SOL    HW110831   6.798   5.319   1.689  0.1293  1.2254 -1.8107
 3413SOL    HW210832   6.707   5.264   1.582 -1.3946  1.4551 -0.6783
 3414SOL     OW10833   1.060   5.014   2.424 -0.2686  0.0279  0.4262
 3414SOL    HW110834   1.029   4.933   2.466  1.0516 -0.3284  0.7750
 3414SOL    HW210835   1.010   5.084   2.466 -0.4736 -0.5050  1.0875
 3415SOL     OW10836   3.890   2.658   3.305  0.0676 -0.4983 -0.3715
 3415SOL    HW110837   3.852   2.580   3.346  0.6397 -1.1750 -1.0939
 3415SOL    HW210838   3.814   2.710   3.280 -0.3074 -0.4651  0.7816
 3416SOL     OW10839   5.429   2.768   3.256  0.2027  0.6858  0.1422
 3416SOL    HW110840   5.386   2.838   3.306 -0.7449  1.1538 -1.2465
 3416SOL    HW210841   5.358   2.729   3.204  0.9548 -0.4694 -0.0503
 3417SOL     OW10842   7.013   1.435   1.541 -0.5121 -0.5546 -0.3141
 3417SOL    HW110843   7.068   1.450   1.464 -0.8244 -0.9338 -0.6178
 3417SOL    HW210844   6.968   1.352   1.522 -1.6729  0.0638 -0.3503
 3418SOL     OW10845   5.359   3.892   0.767 -0.3366  0.3941 -0.3572
 3418SOL    HW110846   5.317   3.885   0.852 -0.0507 -1.0520 -0.3023
 3418SOL    HW210847   5.451   3.873   0.784 -0.4854 -1.2480 -1.1342
 3419SOL     OW10848   7.059   5.008   2.939  0.4440 -0.1118  0.1589
 3419SOL    HW110849   7.142   4.961   2.927  0.6925  0.0767  1.0731
 3419SOL    HW210850   7.041   5.001   3.032  0.6082  1.7854  0.3749
 3420SOL     OW10851   5.079   0.184   1.402 -0.6387  0.5947  0.1726
 3420SOL    HW110852   5.133   0.175   1.324 -0.0785  0.5234  0.5676
 3420SOL    HW210853   5.075   0.096   1.440  0.7914  0.9887  1.3401
 3421SOL     OW10854   5.169   1.683   1.945  0.0534 -0.2179 -0.0058
 3421SOL    HW110855   5.137   1.623   1.878 -0.3644 -0.7509  0.6508
 3421SOL    HW210856   5.219   1.749   1.897  0.0085 -0.7502 -0.8022
 3422SOL     OW10857   6.276   3.557   1.119 -0.0810 -0.2273 -0.1326
 3422SOL    HW110858   6.282   3.639   1.169 -0.0124  0.1866 -0.8097
 3422SOL    HW210859   6.279   3.489   1.186 -1.0295  0.3376  0.5156
 3423SOL     OW10860   7.047   2.188   0.938 -0.0082  0.0032 -0.3116
 3423SOL    HW110861   6.956   2.217   0.950 -0.0032 -0.0948 -0.0097
 3423SOL    HW210862   7.099   2.268   0.948  0.0025 -0.0883  0.4706
 3424SOL     OW10863   5.555   2.507   2.482 -0.3165  0.3789  0.0787
 3424SOL    HW110864   5.561   2.551   2.567  1.5119 -0.8800  0.6641
 3424SOL    HW210865   5.643   2.471   2.467 -0.5517  0.6345 -2.4088
 3425SOL     OW10866   5.682   2.074   1.853  0.0946 -0.0154 -0.5246
 3425SOL    HW110867   5.645   2.010   1.792  1.2418 -1.0109 -0.2308
 3425SOL    HW210868   5.712   2.146   1.798  0.3447 -0.5209 -1.0540
 3426SOL     OW10869   2.520   4.211   1.249 -0.3147  0.0340  0.2688
 3426SOL    HW110870   2.473   4.191   1.330 -0.7504  0.3016  0.0832
 3426SOL    HW210871   2.462   4.270   1.201  0.0559  0.0861 -0.1228
 3427SOL     OW10872   5.038   0.393   1.858 -0.2292  0.2417 -0.2163
 3427SOL    HW110873   5.061   0.486   1.860  0.5105  0.1526 -2.2189
 3427SOL    HW210874   4.947   0.391   1.832 -0.2291  0.3959 -0.2286
 3428SOL     OW10875   0.154   1.560   0.809 -0.4093  0.0046 -0.2361
 3428SOL    HW110876   0.193   1.570   0.895  1.9581 -2.5272 -0.8673
 3428SOL    HW210877   0.119   1.471   0.808 -0.9660  0.1974 -1.6857
 3429SOL     OW10878   2.437   0.427   2.231 -0.1231  0.6778  0.4359
 3429SOL    HW110879   2.419   0.426   2.137  0.1757  0.5314  0.3806
 3429SOL    HW210880   2.370   0.485   2.267  1.5556  3.1900 -0.2330
 3430SOL     OW10881   6.569   0.698   1.975 -0.0513  0.6942 -0.0929
 3430SOL    HW110882   6.624   0.732   2.046 -1.0353  1.9835  0.0903
 3430SOL    HW210883   6.483   0.737   1.991 -0.3724  0.7439 -1.8169
 3431SOL     OW10884   6.952   0.777   0.699  0.6072 -0.3960 -0.0432
 3431SOL    HW110885   7.019   0.730   0.749  1.7669  0.1916 -0.9709
 3431SOL    HW210886   6.987   0.866   0.691 -1.2113  0.4751  1.0921
 3432SOL     OW10887   0.088   3.566   0.109  0.1875 -0.1617 -0.2272
 3432SOL    HW110888   0.127   3.615   0.181 -0.7244 -2.2484  1.8071
 3432SOL    HW210889   0.008   3.614   0.088 -1.0468 -1.0082  2.1776
 3433SOL     OW10890   2.036   5.188   0.029  0.2393 -0.5430 -0.2653
 3433SOL    HW110891   2.115   5.224   0.071  0.4974 -0.2080 -1.0111
 3433SOL    HW210892   2.008   5.118   0.087  1.0506 -0.6217  0.0501
 3434SOL     OW10893   5.124   2.562   2.627  0.0415  0.1793 -0.2606
 3434SOL    HW110894   5.192   2.568   2.561 -0.0227 -2.9317 -0.7535
 3434SOL    HW210895   5.050   2.521   2.583 -0.9438  0.3530  1.1328
 3435SOL     OW10896   3.731   1.217   2.114 -0.3909  0.0284  0.4290
 3435SOL    HW110897   3.678   1.256   2.183 -0.1875  0.8958  0.1089
 3435SOL    HW210898   3.685   1.239   2.033 -0.1611 -0.2208  0.2287
 3436SOL     OW10899   5.987   4.941   2.781 -0.1248  0.2867  0.5544
 3436SOL    HW110900   6.034   4.864   2.812 -0.0307 -0.2096 -0.7277
 3436SOL    HW210901   6.019   4.953   2.691 -1.3732  0.8098  0.1626
 3437SOL     OW10902   5.735   4.997   3.010  0.5900  0.0284 -0.0480
 3437SOL    HW110903   5.793   4.939   3.061  0.3528 -0.2435 -0.0888
 3437SOL    HW210904   5.684   5.043   3.076  1.8824  1.3792  0.0721
 3438SOL     OW10905   5.074   2.224   3.188  0.2492  0.0509  0.6586
 3438SOL    HW110906   5.077   2.320   3.186 -0.1901  0.0611 -0.7952
 3438SOL    HW210907   4.989   2.204   3.225 -0.8395  0.2968 -1.5372
 3439SOL     OW10908   6.871   4.009   2.218 -0.1385 -0.3379  0.4559
 3439SOL    HW110909   6.892   4.083   2.160 -1.0726  0.1287  0.6933
 3439SOL    HW210910   6.776   3.996   2.206 -0.1716 -0.8211  1.2076
 3440SOL     OW10911   1.036   0.538   2.206 -0.5463  0.3434  0.1899
 3440SOL    HW110912   0.949   0.571   2.184 -1.2434 -1.7840 -0.5630
 3440SOL    HW210913   1.028   0.511   2.297 -1.0744 -0.8830 -0.1918
 3441SOL     OW10914   3.788   4.777   2.454 -0.5759  0.0413  0.3756
 3441SOL    HW110915   3.863   4.832   2.478 -0.6835 -0.1798  1.2360
 3441SOL    HW210916   3.715   4.812   2.505 -1.2131  0.6119 -0.8722
 3442SOL     OW10917   0.745   3.898   3.071  0.1361 -0.4630  0.7146
 3442SOL    HW110918   0.834   3.864   3.059  0.4317  0.3235  0.6564
 3442SOL    HW210919   0.713   3.914   2.982  0.6295  1.0069  0.7798
 3443SOL     OW10920   5.699   1.215   0.715 -0.2490  0.0544  0.1837
 3443SOL    HW110921   5.704   1.155   0.640  1.6383 -0.6994  0.8597
 3443SOL    HW210922   5.632   1.175   0.772 -1.7491  0.6732 -1.0798
 3444SOL     OW10923   1.207   1.760   3.259 -0.3868 -0.5125  0.2360
 3444SOL    HW110924   1.290   1.796   3.289 -0.3407  0.9090 -1.4714
 3444SOL    HW210925   1.151   1.837   3.246 -0.9910 -1.2023 -1.4625
 3445SOL     OW10926   0.919   4.397   3.454  0.0596  0.3512  0.5842
 3445SOL    HW110927   0.934   4.305   3.475  0.6033  1.1009  3.9225
 3445SOL    HW210928   1.004   4.439   3.469 -0.5650  1.6473  0.5703
 3446SOL     OW10929   4.617   0.310   2.727  0.2497  0.1380 -0.1911
 3446SOL    HW110930   4.707   0.336   2.706 -0.3674  1.6946 -1.0245
 3446SOL    HW210931   4.624   0.266   2.812  1.5666  1.7956  0.5996
 3447SOL     OW10932   4.819   1.627   2.379 -0.5950 -0.4519  0.3845
 3447SOL    HW110933   4.882   1.657   2.445  1.3393 -0.1514 -1.5185
 3447SOL    HW210934   4.769   1.706   2.357  1.2883  0.3763 -1.1655
 3448SOL     OW10935   2.768   2.194   2.543 -0.4099  0.3992 -0.0184
 3448SOL    HW110936   2.828   2.142   2.490 -0.3925  0.2216  0.1734
 3448SOL    HW210937   2.698   2.132   2.567 -1.9610  1.1774 -2.2607
 3449SOL     OW10938   2.135   1.859   2.600  0.2808 -0.2918  0.0634
 3449SOL    HW110939   2.070   1.808   2.551 -2.3156  2.5164  0.2698
 3449SOL    HW210940   2.189   1.900   2.532 -0.1050 -0.2938 -0.2528
 3450SOL     OW10941   1.367   2.429   1.185  0.0417 -0.3508  0.0867
 3450SOL    HW110942   1.311   2.427   1.108  3.0514 -2.4900 -2.2795
 3450SOL    HW210943   1.351   2.346   1.230 -1.2496  0.6210  1.5185
 3451SOL     OW10944   4.505   2.014   0.658 -0.8527 -0.2336 -0.5555
 3451SOL    HW110945   4.570   2.081   0.677 -0.3827 -0.6028 -0.8564
 3451SOL    HW210946   4.553   1.946   0.611 -1.3594 -0.7065 -0.3999
 3452SOL     OW10947   4.144   4.758   0.607  0.1508 -0.0011  0.6242
 3452SOL    HW110948   4.164   4.729   0.518 -1.2625  0.4715  0.1096
 3452SOL    HW210949   4.159   4.852   0.606 -0.0259  0.0319  0.8330
 3453SOL     OW10950   3.748   0.237   0.182 -0.2933 -0.3072  0.4380
 3453SOL    HW110951   3.661   0.263   0.153 -0.0723 -0.5232 -0.4460
 3453SOL    HW210952   3.800   0.317   0.180 -0.4701 -0.1743  0.9857
 3454SOL     OW10953   4.406   3.222   1.010 -0.0447 -0.1402 -0.4020
 3454SOL    HW110954   4.325   3.189   0.972 -0.9513  1.4079  0.1098
 3454SOL    HW210955   4.394   3.317   1.013  0.0238 -0.0989  3.5483
 3455SOL     OW10956   3.037   2.883   2.579 -0.0552 -0.0009 -0.3905
 3455SOL    HW110957   3.117   2.842   2.546 -0.0838  0.9806 -1.7549
 3455SOL    HW210958   3.041   2.973   2.547 -0.8741  0.5641  1.0104
 3456SOL     OW10959   7.028   1.121   3.230 -0.0963 -0.0499  0.3840
 3456SOL    HW110960   6.936   1.095   3.226 -0.2616  0.5721  0.0025
 3456SOL    HW210961   7.066   1.087   3.149  0.0551 -0.4647  0.6271
 3457SOL     OW10962   7.022   1.669   1.670  0.0483  0.6946  0.4095
 3457SOL    HW110963   7.006   1.593   1.613 -0.6964 -0.7077  2.3932
 3457SOL    HW210964   7.007   1.745   1.613 -0.9929 -0.6362 -1.1833
 3458SOL     OW10965   0.551   3.227   2.522  0.4844  0.2441  0.0624
 3458SOL    HW110966   0.587   3.186   2.601 -1.1843 -0.9051  0.2786
 3458SOL    HW210967   0.477   3.279   2.553 -1.2348 -1.5254 -0.8531
 3459SOL     OW10968   0.042   2.258   1.921  0.0304 -0.1194  0.0138
 3459SOL    HW110969   0.039   2.349   1.950 -0.6862  0.2677 -1.1986
 3459SOL    HW210970   0.135   2.241   1.904  0.0586  0.7707 -0.8482
 3460SOL     OW10971   0.773   4.579   2.152  0.1972  0.1873  0.6944
 3460SOL    HW110972   0.682   4.583   2.125  0.1586  0.1604  0.8191
 3460SOL    HW210973   0.771   4.597   2.246  0.0225 -2.7021  1.3116
 3461SOL     OW10974   6.397   2.100   2.925  0.4448 -0.8505  0.2524
 3461SOL    HW110975   6.365   2.134   2.841  3.1605 -2.8857 -1.7759
 3461SOL    HW210976   6.417   2.008   2.908 -0.6184 -1.8833  3.7197
 3462SOL     OW10977   1.352   2.766   0.057 -0.4761 -0.3709 -0.5350
 3462SOL    HW110978   1.412   2.793  -0.013  2.3235 -0.8029  1.5229
 3462SOL    HW210979   1.317   2.683   0.027  2.2425 -1.5812 -0.7128
 3463SOL     OW10980   4.503   0.387   0.241 -0.1556  0.1228  0.4919
 3463SOL    HW110981   4.569   0.431   0.294 -0.5391 -0.0405  1.1239
 3463SOL    HW210982   4.480   0.450   0.173  2.0605 -0.5222 -0.9703
 3464SOL     OW10983   4.895   4.371   1.522 -0.0947  0.1776  0.1413
 3464SOL    HW110984   4.925   4.374   1.613  1.9219 -0.7786 -0.4261
 3464SOL    HW210985   4.850   4.455   1.509 -0.3906  0.3536  1.9870
 3465SOL     OW10986   6.482   1.737   2.693  0.1004  0.1407 -0.4175
 3465SOL    HW110987   6.428   1.659   2.681  0.7222 -0.3985  0.2309
 3465SOL    HW210988   6.422   1.810   2.674 -0.3290 -0.4955 -1.5872
 3466SOL     OW10989   6.236   4.065   1.874  0.0402  0.2640  0.0638
 3466SOL    HW110990   6.154   4.108   1.850 -1.5272 -2.3104  0.3782
 3466SOL    HW210991   6.263   4.020   1.793  1.2056  1.1364 -0.0531
 3467SOL     OW10992   5.347   4.346   2.260  0.2517  0.5632  0.0627
 3467SOL    HW110993   5.351   4.312   2.171 -1.0492  0.2182  0.1111
 3467SOL    HW210994   5.430   4.391   2.273  0.9447 -0.3904 -0.9094
 3468SOL     OW10995   6.250   3.781   1.294 -0.2559  0.0889  0.4138
 3468SOL    HW110996   6.307   3.762   1.369 -1.1752 -1.6921  0.7144
 3468SOL    HW210997   6.176   3.829   1.332 -0.5992 -0.5916  0.6127
 3469SOL     OW10998   4.933   5.247   0.443  0.1152  0.4480 -0.4092
 3469SOL    HW110999   4.851   5.294   0.432  0.4075  1.1423  0.2902
 3469SOL    HW211000   4.916   5.187   0.517 -0.6052 -1.3870 -1.9723
 3470SOL     OW11001   5.475   5.074   1.338  0.1413  0.0908  0.3279
 3470SOL    HW111002   5.397   5.076   1.284  0.3340 -0.4727  0.0222
 3470SOL    HW211003   5.499   4.981   1.343 -0.1989  0.0601  1.8594
 3471SOL     OW11004   0.204   2.446   1.266 -0.0783 -0.0504 -0.5249
 3471SOL    HW111005   0.232   2.532   1.299  0.8234 -1.0286  1.4013
 3471SOL    HW211006   0.173   2.399   1.343 -0.4071 -1.5282 -1.5182
 3472SOL     OW11007   5.337   3.838   1.917 -0.0966 -0.6803 -0.1781
 3472SOL    HW111008   5.321   3.899   1.989 -0.2301 -1.5925  0.5902
 3472SOL    HW211009   5.343   3.893   1.839 -0.3996  0.2862  0.4679
 3473SOL     OW11010   5.100   3.019   1.663  0.0524 -0.4852 -0.1898
 3473SOL    HW111011   5.079   3.113   1.660 -1.8693 -0.8078  1.1322
 3473SOL    HW211012   5.191   3.014   1.635 -0.1087  1.6569 -1.3459
 3474SOL     OW11013   3.719   3.735   2.574 -0.2651 -0.4375 -0.2211
 3474SOL    HW111014   3.639   3.705   2.618  0.5124 -0.4616  1.2626
 3474SOL    HW211015   3.790   3.696   2.625  0.7342 -1.7477 -2.4594
 3475SOL     OW11016   1.822   3.821   0.552  0.0207 -0.5656 -0.1241
 3475SOL    HW111017   1.734   3.803   0.518  0.1275 -0.7196 -0.3251
 3475SOL    HW211018   1.810   3.828   0.646 -0.5284  1.3607 -0.3032
 3476SOL     OW11019   5.487   3.500   2.536  0.3168 -0.5537  0.0185
 3476SOL    HW111020   5.543   3.567   2.497  0.0006 -1.0353 -1.3095
 3476SOL    HW211021   5.546   3.426   2.553  0.1441 -0.9865 -1.1936
 3477SOL     OW11022   0.264   2.597   0.679 -0.8274 -0.3073 -0.3725
 3477SOL    HW111023   0.183   2.588   0.729 -0.7149 -2.1052 -0.4368
 3477SOL    HW211024   0.294   2.507   0.667  1.5557  0.3381  0.2740
 3478SOL     OW11025   1.197   0.120   0.117  0.4079 -0.1461 -0.6232
 3478SOL    HW111026   1.206   0.055   0.047  0.9449  1.4895 -2.1583
 3478SOL    HW211027   1.105   0.118   0.140 -0.3081  0.8355 -3.0522
 3479SOL     OW11028   5.400   0.411   1.427 -0.2819  0.3869 -1.2346
 3479SOL    HW111029   5.363   0.431   1.340 -1.8301  2.8750 -0.1341
 3479SOL    HW211030   5.325   0.418   1.486  0.7682 -1.1844  0.3510
 3480SOL     OW11031   1.650   1.205   0.338 -0.4294  0.2651  0.2267
 3480SOL    HW111032   1.699   1.150   0.276  0.0473  0.9977 -0.0601
 3480SOL    HW211033   1.560   1.201   0.307 -0.3381 -0.0683 -0.0018
 3481SOL     OW11034   0.700   5.042   1.542  0.1740  0.0175  0.2389
 3481SOL    HW111035   0.725   5.025   1.633  0.5519 -0.8135 -0.0208
 3481SOL    HW211036   0.663   4.960   1.511  0.3872  0.1859 -0.4757
 3482SOL     OW11037   4.168   5.044   1.239 -0.4638  0.0532  0.2607
 3482SOL    HW111038   4.202   4.992   1.311 -0.0852 -1.2058 -0.7899
 3482SOL    HW211039   4.226   5.025   1.165 -0.9689  1.1236 -0.4556
 3483SOL     OW11040   1.091   4.940   0.960 -0.0454 -0.4460  0.4547
 3483SOL    HW111041   1.086   4.855   1.004  0.1363  1.1193  3.8301
 3483SOL    HW211042   1.181   4.969   0.973  0.0631  0.0774 -1.1568
 3484SOL     OW11043   1.790   4.792   0.898  0.0757 -0.2957  0.1003
 3484SOL    HW111044   1.716   4.774   0.841 -0.5747 -0.1870  0.8893
 3484SOL    HW211045   1.805   4.710   0.945 -0.6098  0.1446  1.1245
 3485SOL     OW11046   6.235   2.394   2.966 -0.0695  0.3926 -0.2277
 3485SOL    HW111047   6.284   2.454   2.910  1.9284 -0.1364  0.8713
 3485SOL    HW211048   6.207   2.323   2.908  2.4263 -0.4321 -0.5203
 3486SOL     OW11049   6.925   0.932   1.802 -0.4387 -0.0169  0.6864
 3486SOL    HW111050   6.962   0.945   1.889  1.3568  1.4162 -0.2228
 3486SOL    HW211051   6.971   0.995   1.747 -1.3531 -1.0460 -1.3601
 3487SOL     OW11052   3.826   0.926   0.197  0.0158 -0.2530 -0.8394
 3487SOL    HW111053   3.735   0.947   0.215 -0.6264 -0.7495 -3.1313
 3487SOL    HW211054   3.836   0.835   0.224  0.6589  0.5115  1.8778
 3488SOL     OW11055   1.391   5.333   2.820  0.6835  0.4691  0.1336
 3488SOL    HW111056   1.339   5.401   2.864  1.9240  0.9631  0.8836
 3488SOL    HW211057   1.329   5.290   2.761 -0.5925  1.0001  1.0381
 3489SOL     OW11058   2.789   0.396   1.642  0.2922 -0.2055 -0.3115
 3489SOL    HW111059   2.785   0.341   1.564 -0.8222  0.6242 -0.8602
 3489SOL    HW211060   2.809   0.484   1.609  1.2293 -0.1030  0.4761
 3490SOL     OW11061   2.246   2.231   1.330  0.0963  0.3335  0.4914
 3490SOL    HW111062   2.289   2.302   1.281  0.9787  0.3951  1.3150
 3490SOL    HW211063   2.226   2.270   1.415 -0.3682 -0.1057  0.5837
 3491SOL     OW11064   2.689   4.483   2.961 -0.0386  0.3717  0.5503
 3491SOL    HW111065   2.685   4.387   2.966  0.3547  0.3963  1.6382
 3491SOL    HW211066   2.650   4.513   3.043  0.1498  1.1394  0.3678
 3492SOL     OW11067   1.849   5.294   1.944  0.2387  0.1010 -0.4346
 3492SOL    HW111068   1.768   5.243   1.954 -0.0084  0.5830  0.0502
 3492SOL    HW211069   1.891   5.289   2.029 -0.2524  1.4764 -0.0825
 3493SOL     OW11070   1.361   4.792   0.285 -0.1226 -0.0272  0.1036
 3493SOL    HW111071   1.266   4.800   0.282 -0.1890 -0.3346  1.0484
 3493SOL    HW211072   1.377   4.710   0.330  0.5786  1.2560  2.3622
 3494SOL     OW11073   3.196   0.588   3.193 -0.6112  0.3010 -0.2557
 3494SOL    HW111074   3.126   0.528   3.167 -0.7564  0.6277 -0.6247
 3494SOL    HW211075   3.240   0.611   3.111  1.8771 -2.2576  0.2363
 3495SOL     OW11076   7.109   5.204   2.039  0.6536 -0.8952 -0.6865
 3495SOL    HW111077   7.177   5.167   1.983  0.3652  0.4050 -1.9570
 3495SOL    HW211078   7.028   5.164   2.009  0.6424 -1.1472 -0.3310
 3496SOL     OW11079   6.847   3.929   0.220  0.0625  0.6893  0.2293
 3496SOL    HW111080   6.800   3.894   0.144  0.7797 -0.0826  0.1331
 3496SOL    HW211081   6.832   4.024   0.215 -1.0380  0.5138 -0.0978
 3497SOL     OW11082   3.621   0.598   3.337 -0.3929 -0.0943  0.2063
 3497SOL    HW111083   3.601   0.666   3.272  0.2935  1.7055  1.7651
 3497SOL    HW211084   3.536   0.558   3.356 -0.8408  0.3923 -0.6782
 3498SOL     OW11085   7.083   4.682   3.096 -0.2546  0.8547  0.2084
 3498SOL    HW111086   7.064   4.613   3.160  1.2499 -1.5466 -1.7690
 3498SOL    HW211087   7.132   4.747   3.145  0.1515 -0.5180  1.7082
 3499SOL     OW11088   1.132   0.508   1.420  0.3347 -0.1751  0.1356
 3499SOL    HW111089   1.111   0.485   1.330  1.0322 -2.5083  0.4795
 3499SOL    HW211090   1.227   0.500   1.425  0.4438  1.2578  0.7764
 3500SOL     OW11091   0.172   3.986   0.319 -0.7175  0.4993 -0.0911
 3500SOL    HW111092   0.087   4.021   0.292 -0.3382  0.9526 -0.7031
 3500SOL    HW211093   0.204   4.049   0.383 -1.7166 -0.6859  1.6764
 3501SOL     OW11094   5.231   4.828   0.796  0.3780 -0.0258  1.0571
 3501SOL    HW111095   5.209   4.787   0.880 -0.9869  1.2486  1.3627
 3501SOL    HW211096   5.156   4.883   0.776 -0.0070 -1.4441 -1.7997
 3502SOL     OW11097   6.130   5.213   1.180  0.5231  0.3341 -0.1283
 3502SOL    HW111098   6.090   5.168   1.254 -0.7484 -0.8148 -1.4643
 3502SOL    HW211099   6.114   5.306   1.197  1.7799  0.2373  1.8664
 3503SOL     OW11100   2.822   0.557   2.026 -0.1090  0.4113 -0.2525
 3503SOL    HW111101   2.752   0.609   1.986  0.5903  1.0127 -0.7221
 3503SOL    HW211102   2.903   0.599   1.997  0.4457  0.0772  0.7494
 3504SOL     OW11103   4.819   2.667   2.723  0.5700 -0.4922  0.8999
 3504SOL    HW111104   4.867   2.648   2.804  2.0168 -0.2607  0.1404
 3504SOL    HW211105   4.862   2.746   2.688 -1.6205  0.9020  1.1295
 3505SOL     OW11106   0.605   0.969   0.481 -0.1879  0.0755  0.2733
 3505SOL    HW111107   0.550   1.037   0.520  0.7868  1.0593 -0.0216
 3505SOL    HW211108   0.564   0.952   0.396  0.2616  1.2229 -0.1939
 3506SOL     OW11109   1.315   1.217   0.501 -0.6720  0.4690  0.7810
 3506SOL    HW111110   1.249   1.215   0.431 -0.1044  1.5876  0.1915
 3506SOL    HW211111   1.380   1.152   0.474  0.2523  1.8450 -0.4924
 3507SOL     OW11112   6.232   2.992   2.131 -0.5212  0.3871 -0.4343
 3507SOL    HW111113   6.241   2.896   2.127  2.0777  0.5660 -0.3968
 3507SOL    HW211114   6.220   3.018   2.040 -0.6734  0.0521 -0.5133
 3508SOL     OW11115   7.056   0.630   3.356 -0.1902 -0.1755  0.4480
 3508SOL    HW111116   7.115   0.704   3.342 -0.1792 -0.2759 -0.0401
 3508SOL    HW211117   7.104   0.571   3.414 -0.4276  0.4710  1.3310
 3509SOL     OW11118   5.268   2.661   1.661 -0.3517 -0.0584  0.2407
 3509SOL    HW111119   5.175   2.664   1.685 -0.1481  0.5519  1.0120
 3509SOL    HW211120   5.280   2.737   1.604 -0.4083 -0.3721 -0.1939
 3510SOL     OW11121   3.100   5.184   3.399 -0.1769  0.1077 -0.4357
 3510SOL    HW111122   3.089   5.223   3.313  1.1250  1.1361 -0.1640
 3510SOL    HW211123   3.035   5.229   3.454  0.6601  1.2667 -0.3457
 3511SOL     OW11124   3.338   1.280   3.412 -0.0983 -0.3090  0.4360
 3511SOL    HW111125   3.403   1.216   3.443  1.0179 -0.6128 -2.2802
 3511SOL    HW211126   3.283   1.232   3.351 -1.4562  0.5422  0.9289
 3512SOL     OW11127   5.615   2.832   3.024 -0.7529 -0.2612  0.3747
 3512SOL    HW111128   5.553   2.905   3.024  0.5902  0.9177  1.3760
 3512SOL    HW211129   5.609   2.796   3.113 -1.1497 -1.1819 -0.0098
 3513SOL     OW11130   5.394   5.304   2.093  0.2857  0.1472  0.3949
 3513SOL    HW111131   5.368   5.245   2.022  0.2660 -0.3392  0.8075
 3513SOL    HW211132   5.340   5.278   2.168  1.5680 -0.5202  1.1146
 3514SOL     OW11133   6.312   4.461   2.880 -0.3835 -0.3188  0.4710
 3514SOL    HW111134   6.292   4.493   2.967 -2.9341 -0.1867 -0.0891
 3514SOL    HW211135   6.358   4.534   2.837  0.9397 -0.4096  1.6566
 3515SOL     OW11136   6.940   2.704   1.569  0.1524  0.0711  0.4917
 3515SOL    HW111137   6.967   2.662   1.651  0.2490  0.1312  0.4913
 3515SOL    HW211138   7.021   2.744   1.535 -0.3813  2.3409  1.6950
 3516SOL     OW11139   2.062   2.383   1.652  0.3612 -0.3708  0.5677
 3516SOL    HW111140   2.072   2.294   1.619  1.1105 -0.2802  0.5401
 3516SOL    HW211141   2.132   2.433   1.609 -1.2964  0.7138 -1.0692
 3517SOL     OW11142   2.495   0.089   2.449 -0.0489 -0.2493 -0.1863
 3517SOL    HW111143   2.565   0.024   2.459 -1.1147 -1.5476 -1.0238
 3517SOL    HW211144   2.438   0.075   2.525  0.4737  0.6998  0.4061
 3518SOL     OW11145   7.320   1.376   2.360  0.2072 -0.3199  0.8617
 3518SOL    HW111146   7.263   1.317   2.311  0.2374  0.6111 -0.3221
 3518SOL    HW211147   7.310   1.348   2.451 -2.1658 -0.1762  0.7151
 3519SOL     OW11148   5.811   3.229   3.334 -0.1367  0.0479  0.1388
 3519SOL    HW111149   5.725   3.268   3.318 -0.1252  0.1483  0.3187
 3519SOL    HW211150   5.834   3.187   3.251 -0.7007 -0.6294  0.3089
 3520SOL     OW11151   4.686   2.299   2.442 -0.2380 -0.9144 -0.0906
 3520SOL    HW111152   4.679   2.211   2.405 -0.2169 -0.5007 -1.1073
 3520SOL    HW211153   4.636   2.354   2.383 -2.4431 -0.5959  1.9275
 3521SOL     OW11154   3.306   4.228   1.125 -0.0039 -0.6158 -0.4192
 3521SOL    HW111155   3.319   4.268   1.210  0.4381 -0.7463 -0.4216
 3521SOL    HW211156   3.227   4.175   1.135 -0.1615 -0.3383 -0.1996
 3522SOL     OW11157   4.708   3.206   2.608  0.2167  0.3542 -0.0594
 3522SOL    HW111158   4.636   3.265   2.632 -2.6158 -2.1330 -1.8437
 3522SOL    HW211159   4.705   3.136   2.673 -0.5117 -0.9182 -1.4137
 3523SOL     OW11160   0.338   4.130   1.901  0.4157 -0.3903  0.5225
 3523SOL    HW111161   0.423   4.157   1.936  0.9654 -2.2182  0.7217
 3523SOL    HW211162   0.278   4.200   1.926  1.5760  0.2446  1.6493
 3524SOL     OW11163   2.233   4.328   2.898  0.0426  0.1077 -1.0818
 3524SOL    HW111164   2.232   4.236   2.872  1.9223 -0.4448  0.5216
 3524SOL    HW211165   2.155   4.339   2.954  1.6336 -1.5685  1.6943
 3525SOL     OW11166   3.123   4.078   3.203 -0.7298 -0.2616  0.1811
 3525SOL    HW111167   3.202   4.121   3.235 -1.0638 -0.3280  1.1274
 3525SOL    HW211168   3.072   4.149   3.164 -0.2532 -0.2047 -0.3483
 3526SOL     OW11169   2.303   1.791   3.443  0.5094 -0.7417  0.4119
 3526SOL    HW111170   2.390   1.812   3.410  0.2181 -1.9917 -1.3032
 3526SOL    HW211171   2.247   1.862   3.410  0.7512 -0.3168  0.9105
 3527SOL     OW11172   5.666   3.969   2.561  0.2637 -0.7435 -0.0945
 3527SOL    HW111173   5.742   3.938   2.611  1.2252  0.0208 -1.0383
 3527SOL    HW211174   5.604   3.998   2.627  0.9365 -1.0488  0.6898
 3528SOL     OW11175   6.622   0.420   0.526 -0.1288  0.0644 -0.1661
 3528SOL    HW111176   6.625   0.324   0.518  1.3499  0.1931 -1.6948
 3528SOL    HW211177   6.679   0.440   0.600  2.4789 -0.1104 -1.9869
 3529SOL     OW11178   3.061   0.961   0.834 -0.3911 -0.0585 -0.3797
 3529SOL    HW111179   2.967   0.955   0.818 -0.1310  0.2965 -2.2713
 3529SOL    HW211180   3.074   0.918   0.919 -2.4450  1.2482  0.6868
 3530SOL     OW11181   6.025   2.769   1.443  0.1036  0.0488  0.4099
 3530SOL    HW111182   6.108   2.811   1.463  0.3887 -0.3276  0.0344
 3530SOL    HW211183   5.966   2.841   1.421  0.0534  0.3979  1.6088
 3531SOL     OW11184   7.261   0.862   2.820  0.4599 -0.7842 -0.1143
 3531SOL    HW111185   7.203   0.898   2.753  0.4411 -3.6709 -1.8260
 3531SOL    HW211186   7.337   0.921   2.820 -1.4563  1.8604  0.6883
 3532SOL     OW11187   1.082   4.416   1.625  1.1823  0.2725 -0.1882
 3532SOL    HW111188   1.042   4.412   1.712  0.7060 -1.5304 -0.4594
 3532SOL    HW211189   1.175   4.434   1.642  1.0716  0.0601  0.6755
 3533SOL     OW11190   3.006   3.146   2.544 -0.1714  0.2723  0.3203
 3533SOL    HW111191   3.076   3.199   2.506 -0.0385  0.9053  1.4160
 3533SOL    HW211192   2.988   3.186   2.629 -1.0187 -0.6213  0.5872
 3534SOL     OW11193   7.062   5.021   0.892  0.1123  0.0177 -0.2124
 3534SOL    HW111194   7.122   5.040   0.820 -0.1690  1.1423 -0.1683
 3534SOL    HW211195   7.040   5.107   0.928 -0.3288 -0.4828  0.7472
 3535SOL     OW11196   4.890   4.617   1.154 -0.3101 -0.2231  0.4071
 3535SOL    HW111197   4.966   4.646   1.204 -1.2225  0.7533  1.2782
 3535SOL    HW211198   4.884   4.523   1.172  0.4937 -0.2513  0.5718
 3536SOL     OW11199   6.565   4.271   1.831  0.2794  0.5770 -0.1572
 3536SOL    HW111200   6.611   4.348   1.798  1.8295  0.0367  0.6508
 3536SOL    HW211201   6.502   4.306   1.894  0.4081  1.2449 -0.3909
 3537SOL     OW11202   6.109   1.714   1.813  0.3122  0.3551 -0.2068
 3537SOL    HW111203   6.018   1.724   1.839  0.1068  2.2731 -1.4739
 3537SOL    HW211204   6.106   1.658   1.736  0.5663 -2.1116  1.4496
 3538SOL     OW11205   0.291   4.499   0.044 -0.0907 -0.4143 -0.5548
 3538SOL    HW111206   0.338   4.534   0.120  1.5114 -1.6695 -0.9005
 3538SOL    HW211207   0.233   4.570   0.016  2.4263  1.7159 -0.7701
 3539SOL     OW11208   2.570   3.767   0.872 -0.0569 -0.4536  0.5556
 3539SOL    HW111209   2.526   3.841   0.830  1.6067  0.4644  0.3731
 3539SOL    HW211210   2.517   3.749   0.950 -0.2830  1.2004  0.8284
 3540SOL     OW11211   1.458   0.497   1.861 -0.0150 -0.3471 -0.1901
 3540SOL    HW111212   1.435   0.404   1.868 -0.0099 -0.2440  1.8397
 3540SOL    HW211213   1.552   0.499   1.877  0.0533 -0.0302 -0.6367
 3541SOL     OW11214   5.104   0.068   1.884  0.4166 -0.2107  0.1280
 3541SOL    HW111215   5.131  -0.024   1.892  0.5963 -0.1452  0.2717
 3541SOL    HW211216   5.154   0.114   1.951  1.4196  0.2306 -0.8781
 3542SOL     OW11217   7.013   0.064   0.421  0.0341 -0.1999  0.0840
 3542SOL    HW111218   7.075   0.076   0.493  1.4715 -1.5017 -0.8699
 3542SOL    HW211219   6.973   0.150   0.408 -0.2390  0.0819  2.3866
 3543SOL     OW11220   0.365   2.115   2.282  0.1889 -0.1936  0.1603
 3543SOL    HW111221   0.376   2.205   2.314 -1.2269  0.3028 -0.6448
 3543SOL    HW211222   0.342   2.065   2.360  2.2301 -0.1566  0.8476
 3544SOL     OW11223   5.699   5.044   1.957  0.0959 -0.5699  0.2536
 3544SOL    HW111224   5.781   5.057   2.006 -1.5233  0.3538  2.9111
 3544SOL    HW211225   5.667   5.133   1.941 -2.5488 -0.7845  3.3276
 3545SOL     OW11226   2.263   0.092   1.532  0.4715 -0.6295 -0.2449
 3545SOL    HW111227   2.352   0.062   1.550  0.5135  0.0005  0.6787
 3545SOL    HW211228   2.250   0.076   1.438  2.0097  0.4141 -0.6699
 3546SOL     OW11229   6.999   2.716   2.089  0.4040  0.1795  0.1067
 3546SOL    HW111230   7.091   2.721   2.117  0.3604  1.8303  0.0439
 3546SOL    HW211231   6.966   2.805   2.099 -1.3339 -0.4757  0.5406
 3547SOL     OW11232   6.927   2.321   2.249  0.3898  0.2155  0.1696
 3547SOL    HW111233   6.977   2.241   2.234  0.9697  0.7808 -1.0359
 3547SOL    HW211234   6.848   2.312   2.196 -0.3679 -0.2678  1.3436
 3548SOL     OW11235   0.567   5.098   2.028 -0.6505 -0.0460 -0.0651
 3548SOL    HW111236   0.523   5.101   2.113  0.9648 -0.0432  0.8071
 3548SOL    HW211237   0.580   5.190   2.005 -1.6899 -0.0322 -0.6727
 3549SOL     OW11238   5.354   1.429   3.016  0.0886  0.1182 -1.4172
 3549SOL    HW111239   5.282   1.481   3.051  0.6474  1.4312 -2.1468
 3549SOL    HW211240   5.389   1.383   3.093 -1.3651 -0.3909 -1.0216
 3550SOL     OW11241   4.942   1.052   0.581 -0.1293  0.4512  0.1840
 3550SOL    HW111242   4.980   1.083   0.499  0.4896 -1.3069 -0.2386
 3550SOL    HW211243   4.975   1.114   0.647 -1.0549  2.1915 -0.9142
 3551SOL     OW11244   4.021   2.240   0.489  0.0054 -0.1935  0.6440
 3551SOL    HW111245   4.047   2.294   0.564  3.5048 -1.9113  0.8360
 3551SOL    HW211246   4.071   2.275   0.416  0.8403 -1.8851  0.3573
 3552SOL     OW11247   3.151   4.179   2.099  0.0513  0.4281 -0.3228
 3552SOL    HW111248   3.059   4.169   2.075  0.4903 -3.3436 -0.9497
 3552SOL    HW211249   3.195   4.203   2.017 -0.0017 -0.7884 -0.7169
 3553SOL     OW11250   2.143   3.491   2.827 -0.3433  0.5051  0.0474
 3553SOL    HW111251   2.130   3.398   2.844  0.4385  0.2042 -0.9667
 3553SOL    HW211252   2.090   3.510   2.750 -0.5546  0.9189  0.2896
 3554SOL     OW11253   7.258   3.625   0.729  0.0801 -0.2685  0.6501
 3554SOL    HW111254   7.241   3.558   0.795 -1.1302 -0.1553  0.4780
 3554SOL    HW211255   7.338   3.668   0.758 -0.3259 -0.3501  1.9302
 3555SOL     OW11256   7.008   1.399   0.591  0.5733 -0.0294  0.1854
 3555SOL    HW111257   7.007   1.305   0.571  1.7839 -0.5646  2.3216
 3555SOL    HW211258   6.952   1.407   0.668  0.9252  0.9282  0.3500
 3556SOL     OW11259   6.412   4.426   2.028  0.0143 -0.4717 -0.2247
 3556SOL    HW111260   6.367   4.419   2.112 -1.4888  2.4853 -0.6416
 3556SOL    HW211261   6.486   4.485   2.046 -0.3588  0.2368 -0.9574
 3557SOL     OW11262   6.225   2.311   1.247  0.6393 -0.1818 -0.3124
 3557SOL    HW111263   6.226   2.228   1.293 -2.8915 -0.8244 -1.0873
 3557SOL    HW211264   6.257   2.375   1.311 -0.8853 -1.5062  1.8922
 3558SOL     OW11265   3.841   3.907   2.954  0.2760 -0.7191 -0.4825
 3558SOL    HW111266   3.918   3.874   2.907  0.0861 -1.6639 -0.1454
 3558SOL    HW211267   3.802   3.971   2.894  0.3502 -1.5027 -1.3915
 3559SOL     OW11268   1.272   1.514   2.925 -0.3649  0.2542  0.3056
 3559SOL    HW111269   1.257   1.474   3.010  0.1489 -1.6028 -0.4266
 3559SOL    HW211270   1.268   1.609   2.941 -0.2538 -0.0577  2.3693
 3560SOL     OW11271   0.752   2.302   3.430  0.0602  0.1404  0.1820
 3560SOL    HW111272   0.710   2.387   3.423 -0.5453 -0.3017 -2.0757
 3560SOL    HW211273   0.680   2.239   3.438  0.3969 -0.3412 -0.4621
 3561SOL     OW11274   4.014   4.684   1.295 -0.1199 -0.0696 -0.5048
 3561SOL    HW111275   4.050   4.628   1.227 -0.0673 -1.1880  0.4063
 3561SOL    HW211276   3.964   4.751   1.248  2.3096  0.9702 -1.7730
 3562SOL     OW11277   0.801   0.184   1.042 -0.1811 -0.5656 -0.2152
 3562SOL    HW111278   0.781   0.277   1.034 -1.0336 -0.8357 -1.7187
 3562SOL    HW211279   0.765   0.158   1.127 -1.3480  0.1483 -0.4728
 3563SOL     OW11280   6.074   0.402   1.160  0.0791  0.2007  0.8071
 3563SOL    HW111281   6.087   0.443   1.246 -0.7130 -1.5673  1.8155
 3563SOL    HW211282   6.095   0.310   1.174  0.0961 -0.0916 -0.9607
 3564SOL     OW11283   3.791   4.178   2.077 -0.6416 -0.1377  0.1126
 3564SOL    HW111284   3.787   4.241   2.149 -1.1798 -1.4004  1.2325
 3564SOL    HW211285   3.775   4.094   2.118  0.8187 -1.1293 -1.2178
 3565SOL     OW11286   5.494   1.783   1.289 -0.0258  0.1469  0.0609
 3565SOL    HW111287   5.419   1.834   1.259  0.1886  0.3027 -0.2224
 3565SOL    HW211288   5.552   1.779   1.213 -0.1731 -0.7870 -0.0111
 3566SOL     OW11289   2.261   4.192   2.224 -0.1446 -0.3694 -0.6004
 3566SOL    HW111290   2.327   4.200   2.293 -1.1241  0.9256  0.2231
 3566SOL    HW211291   2.182   4.162   2.270 -1.6758  3.2673 -0.5002
 3567SOL     OW11292   4.372   3.526   2.155  0.4297  0.2098 -0.1818
 3567SOL    HW111293   4.446   3.467   2.171  0.3662  0.5431  1.5215
 3567SOL    HW211294   4.364   3.577   2.235 -0.5938  1.3733 -0.9788
 3568SOL     OW11295   0.665   5.213   0.548  0.3332 -0.0987  0.1358
 3568SOL    HW111296   0.741   5.158   0.526 -0.1586 -0.8930  0.3784
 3568SOL    HW211297   0.623   5.231   0.464 -0.3540 -1.3712  0.1820
 3569SOL     OW11298   1.388   4.274   0.191 -0.1362 -0.3527  0.0841
 3569SOL    HW111299   1.332   4.318   0.255 -0.3269 -1.8649  1.0055
 3569SOL    HW211300   1.442   4.344   0.154 -0.3725  0.6342  1.5268
 3570SOL     OW11301   1.558   4.054   2.666  0.0631 -0.1250 -0.0952
 3570SOL    HW111302   1.560   4.141   2.705 -0.7824 -0.1307 -0.0305
 3570SOL    HW211303   1.615   4.001   2.722  2.6997  0.9456 -1.5664
 3571SOL     OW11304   0.973   2.257   3.294 -0.1888 -0.2841  0.0557
 3571SOL    HW111305   0.891   2.301   3.318  0.7765  0.3184  2.5940
 3571SOL    HW211306   0.967   2.171   3.336  0.2579 -0.4458 -0.2081
 3572SOL     OW11307   0.454   4.893   3.106 -0.2513  0.2806 -0.0040
 3572SOL    HW111308   0.454   4.799   3.125 -0.6973  0.1117 -0.7700
 3572SOL    HW211309   0.484   4.934   3.187 -0.3587 -0.5001  0.4448
 3573SOL     OW11310   3.498   2.114   0.047 -0.2941  0.1501  0.4009
 3573SOL    HW111311   3.483   2.021   0.067  0.4098  0.2136  1.2464
 3573SOL    HW211312   3.411   2.154   0.055 -0.5563 -0.3861  0.2889
 3574SOL     OW11313   0.562   1.542   0.029 -0.0620  0.2984 -0.1263
 3574SOL    HW111314   0.531   1.487   0.101 -0.3724  0.8858  0.1970
 3574SOL    HW211315   0.488   1.599   0.009  0.0382  0.1694 -0.8916
 3575SOL     OW11316   2.985   4.626   1.711  0.0439 -0.2339  0.0785
 3575SOL    HW111317   3.053   4.689   1.685 -0.7345 -0.4863 -2.9015
 3575SOL    HW211318   2.915   4.680   1.747  0.4244  0.3343 -0.0214
 3576SOL     OW11319   0.565   3.652   2.371 -0.6021  0.2126  0.0485
 3576SOL    HW111320   0.558   3.571   2.319  0.1149 -0.9354  1.6691
 3576SOL    HW211321   0.485   3.653   2.423  0.4293 -0.7489  1.7458
 3577SOL     OW11322   2.983   2.939   3.377  0.0530 -0.1634  0.8677
 3577SOL    HW111323   2.957   2.975   3.292 -0.6569  0.5121  1.3593
 3577SOL    HW211324   3.079   2.945   3.376 -0.0222  1.7884  0.9237
 3578SOL     OW11325   1.508   2.310   0.245  0.4103  0.5082  0.8472
 3578SOL    HW111326   1.586   2.300   0.301  0.3558 -3.3938  0.5180
 3578SOL    HW211327   1.435   2.284   0.300  0.1063 -1.4228 -0.3745
 3579SOL     OW11328   5.161   1.148   0.448  0.2572 -0.5549  0.1392
 3579SOL    HW111329   5.166   1.237   0.484 -1.3927 -0.5541  0.4327
 3579SOL    HW211330   5.234   1.102   0.490  0.0159  0.1807  1.4437
 3580SOL     OW11331   5.311   1.121   2.274  0.1846  0.5072 -0.3002
 3580SOL    HW111332   5.217   1.137   2.283  0.1264 -0.1202  0.2999
 3580SOL    HW211333   5.342   1.106   2.363  0.6632 -0.3144 -0.5945
 3581SOL     OW11334   1.771   4.419   0.237 -0.1666  0.2769  0.3142
 3581SOL    HW111335   1.819   4.425   0.154 -2.0539 -2.1237 -1.0885
 3581SOL    HW211336   1.813   4.347   0.284 -1.0084 -0.4205  0.0259
 3582SOL     OW11337   3.137   1.855   3.194 -0.5047 -0.2560 -0.7348
 3582SOL    HW111338   3.049   1.821   3.212 -1.2837  0.4576 -2.8095
 3582SOL    HW211339   3.127   1.903   3.112  1.8285 -0.0944 -0.9899
 3583SOL     OW11340   1.849   0.986   2.200  0.9370 -0.4513 -0.1957
 3583SOL    HW111341   1.862   1.080   2.214 -1.4917  0.0009 -0.4377
 3583SOL    HW211342   1.758   0.971   2.224  0.0965 -1.9714 -3.7236
 3584SOL     OW11343   3.691   0.823   1.694  0.1302  0.0667 -0.3217
 3584SOL    HW111344   3.688   0.883   1.768 -0.6822  0.3215 -0.5408
 3584SOL    HW211345   3.684   0.736   1.733 -1.6270  0.2505 -0.1439
 3585SOL     OW11346   0.574   0.619   0.053  0.2317  0.1803  0.2431
 3585SOL    HW111347   0.500   0.586   0.001  0.3473 -0.8184  0.6901
 3585SOL    HW211348   0.634   0.656  -0.012  1.4655 -3.0909 -0.7097
 3586SOL     OW11349   0.304   2.014   0.042 -0.0718  0.1332  0.0719
 3586SOL    HW111350   0.279   1.938  -0.010  1.1983 -0.2910  0.0507
 3586SOL    HW211351   0.291   1.988   0.133 -0.2560  0.1169  0.0401
 3587SOL     OW11352   0.113   1.451   1.736  0.0068 -0.1941  0.2348
 3587SOL    HW111353   0.051   1.513   1.695 -0.4494 -0.6258  0.2630
 3587SOL    HW211354   0.177   1.507   1.779 -0.3956  0.2658  0.2506
 3588SOL     OW11355   3.541   2.394   0.046  0.0898 -0.1686  0.2471
 3588SOL    HW111356   3.510   2.304   0.039 -0.4831  0.1382 -1.5291
 3588SOL    HW211357   3.504   2.439  -0.030  2.7755  0.8523 -0.5925
 3589SOL     OW11358   2.219   5.188   2.331 -0.4197  0.4824 -0.3887
 3589SOL    HW111359   2.246   5.231   2.412 -0.2531  1.3184 -0.8752
 3589SOL    HW211360   2.298   5.185   2.277 -0.1062 -1.5893  0.0983
 3590SOL     OW11361   6.407   1.992   1.078  0.0474  0.2204 -0.2720
 3590SOL    HW111362   6.373   2.027   0.996 -0.7262 -3.2642 -1.6191
 3590SOL    HW211363   6.334   1.944   1.116  1.1968 -0.5956  1.0086
 3591SOL     OW11364   0.068   2.179   2.251 -0.7764  0.3329  0.5302
 3591SOL    HW111365   0.122   2.116   2.298  0.4592  2.2303  1.7750
 3591SOL    HW211366   0.081   2.157   2.159 -2.0043 -2.4605  0.9165
 3592SOL     OW11367   0.777   4.711   2.738  0.1234 -0.5160 -0.5514
 3592SOL    HW111368   0.776   4.806   2.720 -1.4025 -0.6824 -1.6058
 3592SOL    HW211369   0.866   4.684   2.715  0.3303  0.5279 -1.1029
 3593SOL     OW11370   5.117   4.654   2.954 -0.5162 -0.3359 -0.0697
 3593SOL    HW111371   5.177   4.582   2.975  1.5533  1.0890 -0.7732
 3593SOL    HW211372   5.033   4.611   2.937  0.8462 -2.7025 -1.3615
 3594SOL     OW11373   2.164   2.788   0.700  0.0352 -0.2080  0.8168
 3594SOL    HW111374   2.234   2.851   0.719 -0.3606  0.1324  1.1579
 3594SOL    HW211375   2.094   2.842   0.663  0.8728 -0.8572 -1.9533
 3595SOL     OW11376   3.507   4.546   1.163 -0.1819 -0.2473  0.4691
 3595SOL    HW111377   3.601   4.563   1.149 -0.0155 -1.6621 -0.3518
 3595SOL    HW211378   3.503   4.503   1.249 -0.0315 -0.5758  0.3111
 3596SOL     OW11379   2.230   1.691   3.032 -0.0809 -0.0665  0.6843
 3596SOL    HW111380   2.199   1.651   2.950  1.0905 -1.4211  0.8629
 3596SOL    HW211381   2.283   1.766   3.003  0.3035 -0.5214  0.1856
 3597SOL     OW11382   0.811   2.996   3.334 -0.2391  0.2214 -0.4735
 3597SOL    HW111383   0.885   3.056   3.329  0.5160 -0.7096 -0.6587
 3597SOL    HW211384   0.799   2.965   3.244  0.6900 -1.4543 -0.0463
 3598SOL     OW11385   1.196   0.800   2.353  0.5038 -0.2403 -0.7210
 3598SOL    HW111386   1.243   0.719   2.372 -0.1763 -0.8899 -1.6876
 3598SOL    HW211387   1.259   0.870   2.370  2.8755 -1.1207 -4.6369
 3599SOL     OW11388   2.106   3.549   1.644  0.1346 -0.2763  0.3992
 3599SOL    HW111389   2.060   3.547   1.728 -0.2725 -0.1618  0.1811
 3599SOL    HW211390   2.169   3.621   1.653 -0.0103 -0.1674  0.5490
 3600SOL     OW11391   2.362   2.332   3.419 -0.6520 -0.6624 -0.4512
 3600SOL    HW111392   2.307   2.383   3.477  0.8882 -0.7829  1.2221
 3600SOL    HW211393   2.391   2.394   3.351  0.1646  0.3980  0.8206
 3601SOL     OW11394   6.707   4.516   1.807  0.1011  0.0593 -0.2759
 3601SOL    HW111395   6.738   4.561   1.728 -0.0977 -1.4598 -1.2608
 3601SOL    HW211396   6.676   4.587   1.864  2.5350  1.4330 -0.4787
 3602SOL     OW11397   1.212   3.296   1.981  0.1954 -0.4018  0.3976
 3602SOL    HW111398   1.120   3.321   1.971  0.0219 -1.1101  0.1807
 3602SOL    HW211399   1.210   3.202   2.000  0.8827 -0.4529  0.2511
 3603SOL     OW11400   3.898   4.935   1.220  0.4224 -0.1497 -0.2984
 3603SOL    HW111401   3.837   4.991   1.171  0.1687 -0.9889 -0.9604
 3603SOL    HW211402   3.974   4.991   1.236  0.0914  0.4468 -0.7696
 3604SOL     OW11403   6.870   0.991   1.429  0.1323  0.1812  0.3650
 3604SOL    HW111404   6.898   1.019   1.342 -1.1190 -1.3342 -0.5701
 3604SOL    HW211405   6.939   0.931   1.459 -0.8034 -1.5751 -0.8591
 3605SOL     OW11406   4.149   1.867   0.222 -0.1870  0.4278 -0.2308
 3605SOL    HW111407   4.090   1.941   0.213  0.4278  0.9097 -0.3221
 3605SOL    HW211408   4.205   1.870   0.144  0.3240  0.3069  0.1217
 3606SOL     OW11409   3.589   2.438   2.845  0.3820  0.3624  0.2163
 3606SOL    HW111410   3.648   2.503   2.884 -0.5586  1.3458  0.0561
 3606SOL    HW211411   3.645   2.388   2.785  1.5461 -0.2730  1.7798
 3607SOL     OW11412   3.431   4.116   0.675  0.2765  0.1898  0.0161
 3607SOL    HW111413   3.443   4.154   0.763  0.5108  0.9127 -0.3171
 3607SOL    HW211414   3.515   4.131   0.632  1.1792 -2.6830  0.5716
 3608SOL     OW11415   2.977   1.309   2.092  0.2135 -0.1120 -0.2917
 3608SOL    HW111416   2.892   1.352   2.098 -0.5370 -1.1009 -2.5434
 3608SOL    HW211417   3.037   1.365   2.140 -1.5352  1.1170  0.5310
 3609SOL     OW11418   4.861   0.716   1.085 -0.0731 -0.1020  0.6514
 3609SOL    HW111419   4.906   0.719   1.169  1.3822 -2.1151  0.0080
 3609SOL    HW211420   4.785   0.660   1.100  0.6174 -1.1157  0.4813
 3610SOL     OW11421   1.985   2.707   1.015  0.0439  0.3621 -0.4028
 3610SOL    HW111422   1.969   2.795   1.051  0.5246  0.1302  0.3898
 3610SOL    HW211423   1.906   2.658   1.037 -0.4916  0.7494 -1.3838
 3611SOL     OW11424   6.985   2.749   1.118  0.2466 -0.0362 -0.5497
 3611SOL    HW111425   7.008   2.744   1.025  2.4782  0.7018 -0.1025
 3611SOL    HW211426   6.959   2.660   1.141 -0.1903 -0.2618 -1.8341
 3612SOL     OW11427   6.393   3.206   2.369  0.0206 -0.4715  0.2936
 3612SOL    HW111428   6.420   3.115   2.361  1.3387 -0.2153  1.4795
 3612SOL    HW211429   6.465   3.249   2.416 -0.4913  1.2190 -0.3625
 3613SOL     OW11430   6.055   4.817   0.548 -0.5161  0.4369 -0.3052
 3613SOL    HW111431   5.965   4.808   0.580 -0.5850  1.2693 -0.2404
 3613SOL    HW211432   6.071   4.911   0.547  1.3518  0.3107  2.5378
 3614SOL     OW11433   1.311   0.805   1.366  0.0859  0.4148  0.1439
 3614SOL    HW111434   1.334   0.712   1.364 -0.2128  0.3046  1.2256
 3614SOL    HW211435   1.395   0.851   1.364  0.2998  0.0802  0.9572
 3615SOL     OW11436   3.387   0.460   2.056 -0.2489  0.1212  0.3341
 3615SOL    HW111437   3.472   0.420   2.040 -0.6192 -0.1051 -1.2396
 3615SOL    HW211438   3.405   0.553   2.062  0.3038 -0.0523  1.6084
 3616SOL     OW11439   0.258   2.992   0.961  0.2218  0.2004  0.1736
 3616SOL    HW111440   0.320   2.985   0.888 -1.5335 -0.5169 -1.3326
 3616SOL    HW211441   0.308   2.968   1.038  2.3559  1.7233 -0.6439
 3617SOL     OW11442   1.686   2.338   0.616  0.0319 -0.2885  0.2099
 3617SOL    HW111443   1.657   2.269   0.556  3.0506 -0.1228 -1.6486
 3617SOL    HW211444   1.677   2.419   0.566  0.1980  0.1699  0.9097
 3618SOL     OW11445   6.604   3.839   1.747  0.0100 -0.7763 -0.3319
 3618SOL    HW111446   6.602   3.868   1.656  0.6442 -0.2450 -0.1826
 3618SOL    HW211447   6.648   3.910   1.794 -0.6483 -0.8762  0.4526
 3619SOL     OW11448   2.845   4.295   2.706  0.1729 -0.0547  0.3936
 3619SOL    HW111449   2.774   4.230   2.704 -0.8486  0.9906 -2.0951
 3619SOL    HW211450   2.915   4.252   2.755 -1.0954 -2.3344  0.3748
 3620SOL     OW11451   1.424   2.444   3.008  0.5531  0.5170 -0.4324
 3620SOL    HW111452   1.362   2.371   3.010 -1.2085  1.9478  1.5383
 3620SOL    HW211453   1.433   2.466   2.915 -0.4608 -0.8795 -0.8928
 3621SOL     OW11454   2.655   0.465   0.502 -0.1418 -0.2469 -0.6770
 3621SOL    HW111455   2.672   0.500   0.589 -2.3077 -0.1084 -0.2392
 3621SOL    HW211456   2.569   0.423   0.510 -1.1406  1.1059 -3.1044
 3622SOL     OW11457   5.330   3.605   0.930  0.6806 -0.4051 -0.4994
 3622SOL    HW111458   5.306   3.682   0.982  2.4376  1.1349 -1.8567
 3622SOL    HW211459   5.413   3.576   0.967  0.2276 -1.4254 -0.2595
 3623SOL     OW11460   6.034   4.020   2.286 -0.0801  0.4797  0.2699
 3623SOL    HW111461   6.044   3.947   2.347 -2.0331 -0.1544 -0.1003
 3623SOL    HW211462   6.118   4.027   2.242  0.4407 -0.9065  1.0147
 3624SOL     OW11463   4.197   1.526   2.427 -0.3622 -0.3554 -0.0819
 3624SOL    HW111464   4.106   1.535   2.397 -0.5028 -0.0234  0.4407
 3624SOL    HW211465   4.224   1.614   2.450 -0.0143 -0.5033  0.0830
 3625SOL     OW11466   1.708   4.832   0.174 -0.4074 -0.0789 -0.4836
 3625SOL    HW111467   1.733   4.808   0.264 -1.8991  0.3997  0.1002
 3625SOL    HW211468   1.617   4.801   0.166 -0.2643 -0.2011 -1.8714
 3626SOL     OW11469   5.013   0.507   3.309  0.4356  0.4841  0.2306
 3626SOL    HW111470   4.973   0.450   3.374 -0.6668 -0.0867 -0.8984
 3626SOL    HW211471   4.973   0.593   3.324  1.1384  0.6772  1.0998
 3627SOL     OW11472   5.824   1.456   1.819 -0.0255 -0.0795  0.0499
 3627SOL    HW111473   5.768   1.417   1.751 -0.2011  1.2085 -0.5935
 3627SOL    HW211474   5.815   1.551   1.805 -0.0247  0.2233  1.8532
 3628SOL     OW11475   5.743   2.714   0.426  0.0930  0.0517  0.5251
 3628SOL    HW111476   5.701   2.634   0.459  2.8958 -1.8574 -0.0954
 3628SOL    HW211477   5.792   2.747   0.501  2.7285 -1.6435 -0.3049
 3629SOL     OW11478   0.808   4.087   3.276  0.5508 -0.2961 -0.7733
 3629SOL    HW111479   0.776   4.021   3.214  1.4240 -1.4776 -0.0069
 3629SOL    HW211480   0.730   4.116   3.322  0.0549 -0.2873 -1.6009
 3630SOL     OW11481   0.104   1.708   1.316  0.4000  0.3749  0.1347
 3630SOL    HW111482   0.092   1.800   1.340  1.1210  0.4801  0.1083
 3630SOL    HW211483   0.165   1.673   1.380 -0.5347 -0.3306  0.6705
 3631SOL     OW11484   7.005   3.163   2.272 -0.4903 -0.9480 -0.4664
 3631SOL    HW111485   6.913   3.190   2.278 -0.6131 -1.5256  0.2836
 3631SOL    HW211486   7.016   3.139   2.180 -1.3445 -1.7519 -0.3756
 3632SOL     OW11487   6.656   2.384   1.019  0.5501  0.0171  0.1504
 3632SOL    HW111488   6.654   2.474   1.051 -0.5377 -0.5246  1.7276
 3632SOL    HW211489   6.738   2.348   1.053 -0.0600 -0.2151  1.4369
 3633SOL     OW11490   5.233   3.699   2.516  0.2692  0.1079 -0.9649
 3633SOL    HW111491   5.197   3.614   2.544  3.9472 -1.4215 -0.3111
 3633SOL    HW211492   5.230   3.696   2.421 -0.5677 -0.2774 -0.9394
 3634SOL     OW11493   5.460   0.622   1.975 -0.1686 -0.4402 -0.2349
 3634SOL    HW111494   5.432   0.621   2.066  0.9972  0.1881  0.1552
 3634SOL    HW211495   5.431   0.707   1.941  0.3695 -0.1971 -0.1077
 3635SOL     OW11496   0.664   4.691   0.664  0.6699  0.4405  0.0334
 3635SOL    HW111497   0.578   4.683   0.624  1.4329 -0.0526 -1.5852
 3635SOL    HW211498   0.715   4.619   0.627  1.9595  1.0678  0.5094
 3636SOL     OW11499   7.055   1.713   2.127  0.1352 -0.2204 -0.5768
 3636SOL    HW111500   7.072   1.781   2.061 -0.6202  1.4320  0.8634
 3636SOL    HW211501   6.993   1.654   2.085  0.3147  0.3233 -1.6474
 3637SOL     OW11502   3.704   3.145   2.512 -0.7261  0.3310 -0.4668
 3637SOL    HW111503   3.630   3.084   2.513  1.1253 -2.1051 -1.3584
 3637SOL    HW211504   3.781   3.089   2.505  1.2052  2.7746 -0.2011
 3638SOL     OW11505   4.585   0.908   1.130 -0.0472 -0.2135 -0.0928
 3638SOL    HW111506   4.573   0.976   1.196  1.7584  0.7173 -0.6508
 3638SOL    HW211507   4.497   0.894   1.093 -0.7085  0.7233  1.0652
 3639SOL     OW11508   0.087   0.857   1.309  0.1249  0.5035  0.2162
 3639SOL    HW111509   0.024   0.862   1.237 -0.5191  1.9733  0.8582
 3639SOL    HW211510   0.051   0.790   1.367  0.3235 -0.2414 -0.4876
 3640SOL     OW11511   6.216   3.166   2.872  0.2497  0.3648  0.3031
 3640SOL    HW111512   6.201   3.074   2.892  1.3342  0.3972  1.3175
 3640SOL    HW211513   6.199   3.173   2.778 -1.5103 -0.5031  0.5208
 3641SOL     OW11514   4.401   5.341   1.424 -0.1418 -0.1262 -0.4471
 3641SOL    HW111515   4.374   5.269   1.481 -1.1695 -0.9368 -1.8810
 3641SOL    HW211516   4.464   5.302   1.363  0.8623  0.6987  0.0310
 3642SOL     OW11517   0.626   0.978   3.007  0.0152 -0.1080  0.0117
 3642SOL    HW111518   0.592   0.979   3.096 -0.6516 -0.1374 -0.2328
 3642SOL    HW211519   0.556   1.016   2.954  0.5742  0.3215 -0.4451
 3643SOL     OW11520   6.551   0.786   0.499  0.1308 -0.1249 -0.5215
 3643SOL    HW111521   6.469   0.750   0.535  0.0842  1.3607  1.0063
 3643SOL    HW211522   6.596   0.711   0.461 -1.2766 -1.2422 -0.0640
 3644SOL     OW11523   0.089   2.758   1.736  0.3661 -0.1875 -0.2412
 3644SOL    HW111524   0.148   2.721   1.670 -0.2568 -0.5069 -0.6324
 3644SOL    HW211525   0.041   2.682   1.770  0.6896 -0.0234  0.5884
 3645SOL     OW11526   7.058   4.162   3.350 -0.3688  0.6953  0.3396
 3645SOL    HW111527   6.976   4.120   3.324 -0.7261  0.8950  1.1128
 3645SOL    HW211528   7.062   4.150   3.445  0.0873  1.4169  0.4182
 3646SOL     OW11529   4.909   2.270   1.309 -0.3264  0.1127 -0.2232
 3646SOL    HW111530   4.957   2.331   1.253  0.9761 -0.2287  0.4922
 3646SOL    HW211531   4.844   2.324   1.353  0.6393  0.9555  0.2015
 3647SOL     OW11532   2.007   1.601   1.087 -0.5776 -0.0477 -0.6145
 3647SOL    HW111533   2.096   1.608   1.122 -0.8376 -1.6834  0.4553
 3647SOL    HW211534   1.990   1.687   1.048  0.9277  0.7720  0.4510
 3648SOL     OW11535   6.077   1.980   1.868 -0.0653  0.1713 -0.1247
 3648SOL    HW111536   6.023   2.002   1.792 -1.8004  0.7096  1.2040
 3648SOL    HW211537   6.115   1.894   1.847 -0.5869  0.2753 -1.5403
 3649SOL     OW11538   4.617   4.664   2.098 -0.1237 -0.1119  0.0715
 3649SOL    HW111539   4.689   4.606   2.075  1.4156  0.6538  2.5289
 3649SOL    HW211540   4.655   4.752   2.098 -1.9047  0.7358 -1.6505
 3650SOL     OW11541   0.516   4.250   2.311  0.4185 -0.5954 -0.3055
 3650SOL    HW111542   0.542   4.285   2.396 -0.9304 -1.9407  0.7212
 3650SOL    HW211543   0.586   4.189   2.288 -0.6248 -2.6125  1.4314
 3651SOL     OW11544   2.973   0.343   2.503 -0.3356 -0.1767 -0.2808
 3651SOL    HW111545   2.941   0.361   2.414 -0.5767  1.7615  0.1514
 3651SOL    HW211546   2.916   0.272   2.534 -0.9659 -0.1441 -1.2910
 3652SOL     OW11547   5.999   4.879   0.869  0.0907  0.0480  0.1023
 3652SOL    HW111548   5.976   4.925   0.949  1.0211 -0.2399  0.5440
 3652SOL    HW211549   5.915   4.854   0.831 -0.3580 -0.1463  1.1875
 3653SOL     OW11550   5.469   4.616   3.302 -1.0968 -0.6490  0.4211
 3653SOL    HW111551   5.489   4.547   3.238  0.1412  1.2756 -1.4117
 3653SOL    HW211552   5.431   4.686   3.249 -1.2622  0.5156  2.0334
 3654SOL     OW11553   5.691   2.233   2.774 -0.0136  0.0210 -0.0463
 3654SOL    HW111554   5.707   2.260   2.864 -0.4883  0.1406  0.0054
 3654SOL    HW211555   5.612   2.280   2.748 -0.9258 -1.3568  0.0818
 3655SOL     OW11556   2.028   5.139   2.931 -0.2986  0.4322 -0.0224
 3655SOL    HW111557   2.005   5.232   2.928 -0.5068  0.4664  1.6038
 3655SOL    HW211558   2.093   5.128   2.862 -0.5028  1.7127 -0.4491
 3656SOL     OW11559   3.705   4.985   0.756  0.0528 -0.3381  0.5903
 3656SOL    HW111560   3.649   5.026   0.690 -0.4148 -0.6892  0.7609
 3656SOL    HW211561   3.660   4.903   0.777  0.6534 -0.6395  0.7085
 3657SOL     OW11562   5.332   1.962   2.350 -0.5817  0.2802  0.3483
 3657SOL    HW111563   5.323   2.056   2.364  1.9448  0.5712  0.5464
 3657SOL    HW211564   5.358   1.954   2.258 -1.4638 -0.3146  0.1359
 3658SOL     OW11565   4.755   1.916   1.318  1.0676  0.3271 -0.0131
 3658SOL    HW111566   4.693   1.952   1.382  0.6411  0.7036 -0.6366
 3658SOL    HW211567   4.823   1.982   1.310  0.6130  0.7215 -0.6801
 3659SOL     OW11568   7.232   4.420   3.117 -0.1926  0.6294  0.1060
 3659SOL    HW111569   7.172   4.390   3.049  0.1481 -0.9993  0.4728
 3659SOL    HW211570   7.182   4.484   3.167 -1.4054 -0.1627 -0.0446
 3660SOL     OW11571   6.085   0.103   0.003  0.0637 -0.0850 -0.2417
 3660SOL    HW111572   6.144   0.028  -0.006 -1.5310 -1.4202 -0.1266
 3660SOL    HW211573   6.106   0.140   0.088 -0.4487 -1.6857  0.6370
 3661SOL     OW11574   1.869   4.574   2.497  0.1796  0.1347 -0.1245
 3661SOL    HW111575   1.847   4.662   2.465  1.0618  1.3946  2.4538
 3661SOL    HW211576   1.963   4.567   2.484  0.2194 -0.1481  0.3081
 3662SOL     OW11577   0.633   0.024   1.957 -0.8146 -0.6002 -0.0189
 3662SOL    HW111578   0.721   0.050   1.928 -0.9891 -0.4262 -0.4087
 3662SOL    HW211579   0.575   0.091   1.921 -1.4190 -2.1027 -2.0439
 3663SOL     OW11580   1.522   4.006   2.059  0.0801 -0.0730 -0.4228
 3663SOL    HW111581   1.594   4.054   2.018  0.4353 -0.6842 -0.5397
 3663SOL    HW211582   1.486   3.952   1.988  0.0937 -0.4450 -0.1518
 3664SOL     OW11583   6.159   0.314   1.649 -0.6611 -0.0895  0.4090
 3664SOL    HW111584   6.213   0.391   1.631 -0.6251 -0.1617  0.2049
 3664SOL    HW211585   6.071   0.339   1.620 -0.2891 -0.7883 -1.4762
 3665SOL     OW11586   6.213   2.010   0.529  0.0287 -0.1446 -0.3534
 3665SOL    HW111587   6.182   2.037   0.442 -0.3223  0.7030  0.0309
 3665SOL    HW211588   6.308   2.022   0.525  0.0796 -0.6401 -0.7974
 3666SOL     OW11589   6.880   2.603   0.236 -0.3957 -0.0233  0.4425
 3666SOL    HW111590   6.938   2.534   0.265 -1.1396 -0.7624  0.2013
 3666SOL    HW211591   6.898   2.613   0.143 -2.0169 -1.6428 -0.0924
 3667SOL     OW11592   5.294   1.920   1.174  0.2063  0.4624 -0.3113
 3667SOL    HW111593   5.251   1.835   1.167 -0.3138  0.6371  0.6115
 3667SOL    HW211594   5.237   1.980   1.127 -1.1281  0.8760  1.7126
 3668SOL     OW11595   5.796   4.907   0.467 -0.1832  0.4025 -0.2985
 3668SOL    HW111596   5.762   4.909   0.556 -0.3708  0.8523 -0.3774
 3668SOL    HW211597   5.795   4.999   0.439 -1.9259  0.0939 -1.4422
 3669SOL     OW11598   3.199   3.757   0.724  0.0403 -0.0463  0.0224
 3669SOL    HW111599   3.194   3.683   0.784  0.3460 -0.4460 -0.4423
 3669SOL    HW211600   3.130   3.741   0.660  0.0586  0.1095 -0.0364
 3670SOL     OW11601   4.551   4.390   1.858 -0.7630 -0.0197 -0.0234
 3670SOL    HW111602   4.512   4.375   1.945 -0.6590  1.9587  0.4241
 3670SOL    HW211603   4.564   4.303   1.822 -1.1344 -0.8865  1.8141
 3671SOL     OW11604   5.126   4.599   1.326 -0.6301 -0.0554  0.7702
 3671SOL    HW111605   5.161   4.511   1.312  0.5437  0.5083 -0.0522
 3671SOL    HW211606   5.136   4.614   1.420 -0.3958 -0.6278  0.8411
 3672SOL     OW11607   2.328   0.972   0.315  0.0835  0.5554 -0.2756
 3672SOL    HW111608   2.382   0.974   0.235 -0.5875  0.9651 -0.7209
 3672SOL    HW211609   2.381   0.922   0.377 -0.3052 -1.7479 -1.6669
 3673SOL     OW11610   7.049   0.824   1.171 -0.1408 -0.3297  0.1150
 3673SOL    HW111611   7.000   0.765   1.113 -1.1733  0.7518 -0.1449
 3673SOL    HW211612   7.000   0.906   1.168  1.1110  0.4561  0.6984
 3674SOL     OW11613   6.533   0.543   1.059  0.1838 -0.7513 -0.4200
 3674SOL    HW111614   6.579   0.493   1.126 -1.0289 -1.0338  0.2342
 3674SOL    HW211615   6.515   0.628   1.099  1.7835  0.0735 -1.3489
 3675SOL     OW11616   1.286   4.761   3.303 -0.0657 -0.3181 -0.1752
 3675SOL    HW111617   1.225   4.821   3.260  1.2964  0.1340 -1.6148
 3675SOL    HW211618   1.367   4.812   3.311  0.5770 -1.3757  0.2529
 3676SOL     OW11619   0.805   0.884   2.095  0.6682  0.5438 -0.0041
 3676SOL    HW111620   0.886   0.837   2.078  0.2405  0.2475 -1.3298
 3676SOL    HW211621   0.762   0.891   2.010 -2.2376 -2.1316  1.0459
 3677SOL     OW11622   7.036   4.684   0.480  0.0125 -0.1153 -0.3394
 3677SOL    HW111623   7.069   4.767   0.444  1.9612 -0.9996 -0.7315
 3677SOL    HW211624   6.944   4.702   0.500  0.0970  1.8252 -1.3783
 3678SOL     OW11625   2.183   2.435   2.609 -0.5406  0.1663  0.1199
 3678SOL    HW111626   2.185   2.468   2.699 -3.0726  1.4076 -0.1924
 3678SOL    HW211627   2.247   2.489   2.562 -0.5336  0.7707  0.8082
 3679SOL     OW11628   1.382   2.490   0.048 -0.2749 -0.3123  0.4525
 3679SOL    HW111629   1.340   2.545   0.115  1.1770  0.8935  0.4290
 3679SOL    HW211630   1.408   2.411   0.095  0.1055  0.2228  1.1790
 3680SOL     OW11631   3.324   3.892   0.505  0.1170  0.8890 -0.1428
 3680SOL    HW111632   3.269   3.857   0.574 -0.7684  2.2275 -0.1255
 3680SOL    HW211633   3.352   3.978   0.537  0.7985  0.9680 -0.8925
 3681SOL     OW11634   4.787   0.555   1.335 -0.3409 -0.1507 -0.1515
 3681SOL    HW111635   4.847   0.480   1.326  1.0760  0.9300 -0.1850
 3681SOL    HW211636   4.736   0.555   1.255 -0.1618 -0.9095 -0.2735
 3682SOL     OW11637   3.318   3.185   1.158  0.2428 -0.6736 -0.1820
 3682SOL    HW111638   3.368   3.147   1.085  1.7127  0.1158  0.3733
 3682SOL    HW211639   3.329   3.123   1.229  1.6431  0.1481  0.3602
 3683SOL     OW11640   5.500   0.877   1.258  0.0791  0.0394  0.0864
 3683SOL    HW111641   5.514   0.971   1.255  0.7300  0.0225  1.6288
 3683SOL    HW211642   5.432   0.866   1.325 -1.1474 -0.4997 -1.1956
 3684SOL     OW11643   2.914   3.091   1.511  0.4544 -0.4402  0.6366
 3684SOL    HW111644   2.958   3.176   1.521  1.9232 -0.9650 -1.0330
 3684SOL    HW211645   2.836   3.111   1.459 -0.9578  0.3358  2.8605
 3685SOL     OW11646   5.049   3.739   2.104  0.0400 -0.5665  0.5450
 3685SOL    HW111647   5.130   3.696   2.078  0.0304  0.7296 -1.9036
 3685SOL    HW211648   4.986   3.717   2.036 -0.5138  1.6065  0.2649
 3686SOL     OW11649   5.738   0.726   1.085 -0.0401 -1.0029  0.2212
 3686SOL    HW111650   5.823   0.694   1.053 -0.5198 -1.1929 -0.9242
 3686SOL    HW211651   5.757   0.760   1.172  0.9376 -2.3243  0.5640
 3687SOL     OW11652   0.967   4.222   1.849  0.0757 -0.0890 -0.4880
 3687SOL    HW111653   1.060   4.212   1.829  0.3104  2.0910 -0.7679
 3687SOL    HW211654   0.961   4.213   1.944  0.6629  0.2368 -0.4192
 3688SOL     OW11655   0.942   0.779   2.511 -0.1050 -0.1058  0.4711
 3688SOL    HW111656   0.864   0.736   2.477 -0.2807 -0.5242  1.3956
 3688SOL    HW211657   1.015   0.732   2.470 -0.2841  1.5337 -1.9757
 3689SOL     OW11658   1.958   2.426   0.175 -0.3930  0.0827  0.3731
 3689SOL    HW111659   2.049   2.406   0.198  0.7779  1.6938 -2.3083
 3689SOL    HW211660   1.926   2.348   0.131  0.5738  0.3005 -0.7834
 3690SOL     OW11661   5.285   4.186   0.835  0.0024 -0.3032 -0.1292
 3690SOL    HW111662   5.341   4.118   0.798  1.3975 -0.0296  1.3639
 3690SOL    HW211663   5.211   4.191   0.775  0.6827 -1.9534 -1.1870
 3691SOL     OW11664   2.508   1.556   0.034  0.0546 -0.1728 -0.4494
 3691SOL    HW111665   2.533   1.646   0.012 -1.6319  0.4652  0.0553
 3691SOL    HW211666   2.468   1.522  -0.046 -2.1728  0.6638  0.2359
 3692SOL     OW11667   1.832   1.689   1.307 -1.0526  0.5106 -0.0598
 3692SOL    HW111668   1.747   1.712   1.271 -0.7068  0.1435 -1.1505
 3692SOL    HW211669   1.887   1.672   1.231 -0.1076  0.3575  0.6324
 3693SOL     OW11670   2.745   3.903   2.503  0.1410  0.3117 -0.1838
 3693SOL    HW111671   2.797   3.832   2.542 -0.7511 -0.7080 -0.8062
 3693SOL    HW211672   2.810   3.968   2.476  1.0138 -0.4475  0.0383
 3694SOL     OW11673   5.905   3.003   1.371 -0.2968  0.6606 -0.4594
 3694SOL    HW111674   5.830   3.055   1.402 -0.3265 -0.5378  1.6368
 3694SOL    HW211675   5.881   2.979   1.282 -2.9199 -0.5002  0.4511
 3695SOL     OW11676   0.018   1.934   0.821  1.2230 -0.7675  0.5857
 3695SOL    HW111677  -0.077   1.937   0.812  1.1733  0.1632  1.2294
 3695SOL    HW211678   0.033   1.890   0.905  1.3230 -0.3770  0.7803
 3696SOL     OW11679   4.890   2.699   3.200  0.1322  0.2094  0.4789
 3696SOL    HW111680   4.956   2.766   3.180 -0.5699  0.5503 -0.7998
 3696SOL    HW211681   4.807   2.746   3.195 -0.2920 -0.4923  0.8455
 3697SOL     OW11682   6.543   3.548   1.312 -0.0667 -0.4571  0.0062
 3697SOL    HW111683   6.595   3.507   1.381 -0.3991 -1.7340 -0.4771
 3697SOL    HW211684   6.597   3.620   1.280  1.3070 -1.5861 -0.3110
 3698SOL     OW11685   0.001   3.783   2.433  0.0274  0.1374 -0.1536
 3698SOL    HW111686   0.001   3.795   2.338  1.2523  0.0464 -0.1793
 3698SOL    HW211687  -0.090   3.766   2.455 -1.1163  4.2109 -0.7803
 3699SOL     OW11688   2.411   1.048   1.293  0.0036 -0.4551 -0.0129
 3699SOL    HW111689   2.437   0.965   1.253  0.0483 -0.6839  0.4888
 3699SOL    HW211690   2.315   1.050   1.284  0.0238 -0.4462 -0.2415
 3700SOL     OW11691   6.658   2.258   2.150  0.3351  0.4402 -0.2572
 3700SOL    HW111692   6.602   2.331   2.178 -0.8114  0.1864 -1.7351
 3700SOL    HW211693   6.601   2.205   2.095  0.5991 -2.5714  2.1676
 3701SOL     OW11694   4.893   1.219   0.110  0.1151  0.2322 -0.2708
 3701SOL    HW111695   4.830   1.170   0.058  0.1752 -0.3578  0.2010
 3701SOL    HW211696   4.948   1.152   0.150  0.2665  0.6904  0.2983
 3702SOL     OW11697   2.642   5.119   0.397  0.2425  0.2394  0.0221
 3702SOL    HW111698   2.689   5.199   0.373 -0.3646  0.6196  0.0918
 3702SOL    HW211699   2.693   5.048   0.356  0.4518  0.7033 -0.5371
 3703SOL     OW11700   0.770   0.455   1.020  0.0377  0.4239 -0.1525
 3703SOL    HW111701   0.694   0.508   1.042  0.1454  0.4330  0.2097
 3703SOL    HW211702   0.770   0.451   0.924 -0.5909  0.1640 -0.1468
 3704SOL     OW11703   0.823   0.418   1.936 -0.2513  0.2396  0.2513
 3704SOL    HW111704   0.893   0.360   1.966  0.8857  1.8044  0.7904
 3704SOL    HW211705   0.800   0.469   2.013 -1.6479  0.1006 -0.0597
 3705SOL     OW11706   6.352   2.771   2.930  0.4094  0.5543 -0.3546
 3705SOL    HW111707   6.310   2.725   3.002 -1.5016  0.1162 -1.6586
 3705SOL    HW211708   6.286   2.834   2.900  2.5127  3.4530  0.6334
 3706SOL     OW11709   6.069   0.503   0.428  0.4843  0.2108  0.3876
 3706SOL    HW111710   6.155   0.537   0.457  0.6907 -0.7798  0.9909
 3706SOL    HW211711   6.083   0.409   0.420 -0.7929 -0.0919  1.4166
 3707SOL     OW11712   6.851   1.708   3.297 -0.5248  0.7620 -0.8013
 3707SOL    HW111713   6.828   1.793   3.258 -0.3425  1.6208  0.8638
 3707SOL    HW211714   6.775   1.652   3.278 -1.8533  2.0925  0.3128
 3708SOL     OW11715   2.814   3.750   1.322 -0.8840 -0.6735 -0.1707
 3708SOL    HW111716   2.726   3.759   1.358 -0.5431 -2.1414  1.1135
 3708SOL    HW211717   2.801   3.712   1.235 -1.6263  1.5571 -1.1108
 3709SOL     OW11718   0.516   3.409   3.178 -0.5131  0.0006  0.2153
 3709SOL    HW111719   0.542   3.490   3.133  2.4282 -1.0286 -0.0991
 3709SOL    HW211720   0.420   3.415   3.184 -0.4020  3.7265  0.6749
 3710SOL     OW11721   1.165   4.491   2.332  0.2930  0.3114  0.1479
 3710SOL    HW111722   1.112   4.411   2.332  0.2817  0.2720  1.9850
 3710SOL    HW211723   1.243   4.468   2.383  0.1767  1.5149  0.9227
 3711SOL     OW11724   1.339   0.989   2.679 -0.8100  0.1119 -0.8858
 3711SOL    HW111725   1.404   1.006   2.746 -1.5667  2.1408 -0.5991
 3711SOL    HW211726   1.262   1.040   2.706 -2.0403 -1.1063 -1.9316
 3712SOL     OW11727   1.193   2.221   0.704  0.3026 -0.1674  0.0598
 3712SOL    HW111728   1.124   2.156   0.712  0.9611 -0.6773  2.5548
 3712SOL    HW211729   1.147   2.304   0.691 -0.5550 -0.9922 -2.7021
 3713SOL     OW11730   3.489   4.280   0.876  0.3412 -0.2283  0.0717
 3713SOL    HW111731   3.463   4.289   0.967 -1.3977 -0.8267 -0.3329
 3713SOL    HW211732   3.554   4.349   0.862  0.3377  0.1165  1.6461
 3714SOL     OW11733   2.367   1.371   0.731 -0.1415  0.2506 -0.8827
 3714SOL    HW111734   2.280   1.373   0.771  0.3965 -0.7382  0.4494
 3714SOL    HW211735   2.427   1.366   0.806  0.8910 -2.5625 -1.7725
 3715SOL     OW11736   0.126   3.735   2.672  0.1573 -0.2807  0.3490
 3715SOL    HW111737   0.061   3.683   2.720  1.0171 -0.6563  1.1399
 3715SOL    HW211738   0.080   3.766   2.594 -0.0942 -3.1416 -0.7480
 3716SOL     OW11739   6.884   1.628   1.906 -0.1363 -0.4002 -0.4881
 3716SOL    HW111740   6.896   1.533   1.906  0.3109 -0.3485 -1.2388
 3716SOL    HW211741   6.947   1.660   1.841  1.7255  0.6552  1.6776
 3717SOL     OW11742   2.900   0.228   3.407 -0.3761 -0.2436 -0.1993
 3717SOL    HW111743   2.930   0.170   3.477  0.3407  1.8189  1.3070
 3717SOL    HW211744   2.805   0.232   3.418 -0.3041 -0.2201  0.4494
 3718SOL     OW11745   1.551   1.483   1.404  0.6887  0.0526  0.4736
 3718SOL    HW111746   1.494   1.546   1.448 -0.1221  0.9606 -1.7464
 3718SOL    HW211747   1.623   1.537   1.369 -0.0977 -0.1591 -1.5835
 3719SOL     OW11748   1.547   2.029   0.584 -0.0555 -0.4729  0.1220
 3719SOL    HW111749   1.622   2.060   0.534 -0.4375  0.8320  0.3171
 3719SOL    HW211750   1.500   1.971   0.523  0.8586 -0.9650 -0.1326
 3720SOL     OW11751   7.345   0.986   1.953  0.4145  0.2727 -0.0346
 3720SOL    HW111752   7.370   0.946   1.870  0.4368  0.9408 -0.3560
 3720SOL    HW211753   7.372   0.923   2.019 -0.0949 -0.5178 -0.5622
 3721SOL     OW11754   1.637   4.710   0.662 -0.0354  0.8393 -0.1396
 3721SOL    HW111755   1.657   4.619   0.638  0.4831  0.6328  1.0254
 3721SOL    HW211756   1.545   4.722   0.638 -0.7607 -0.6813  1.6589
 3722SOL     OW11757   0.280   3.408   0.375  0.1815 -0.8068  0.3083
 3722SOL    HW111758   0.194   3.395   0.415 -0.1289  0.1362 -0.0143
 3722SOL    HW211759   0.262   3.409   0.281  0.0126  2.4763  0.2653
 3723SOL     OW11760   6.542   1.506   1.471 -0.0685  0.0101  0.0459
 3723SOL    HW111761   6.470   1.461   1.516 -0.1708 -0.9961 -1.0783
 3723SOL    HW211762   6.594   1.436   1.433  1.7071  0.7063  1.0755
 3724SOL     OW11763   5.384   0.410   0.546  0.2184  0.0103  0.0360
 3724SOL    HW111764   5.476   0.385   0.559  0.1184 -0.1106  0.5329
 3724SOL    HW211765   5.385   0.505   0.542  0.4667 -0.0183 -0.7801
 3725SOL     OW11766   1.126   3.463   3.080 -0.0665  0.0117  0.4697
 3725SOL    HW111767   1.098   3.419   3.160 -0.3965  0.6177  0.6956
 3725SOL    HW211768   1.221   3.452   3.079  0.1058  1.1679  1.6678
 3726SOL     OW11769   4.299   3.060   2.903  0.0542  0.0837 -0.1451
 3726SOL    HW111770   4.216   3.108   2.895  0.9569  2.1821  1.8393
 3726SOL    HW211771   4.282   2.996   2.971 -1.0161 -2.3017 -2.4845
 3727SOL     OW11772   1.575   4.903   1.808  0.1834 -0.0277 -0.3662
 3727SOL    HW111773   1.620   4.837   1.754  0.7637 -2.7802  3.1269
 3727SOL    HW211774   1.483   4.894   1.784  0.2804 -1.9812 -0.2123
 3728SOL     OW11775   1.964   3.573   1.873 -0.1932 -0.2609 -0.4476
 3728SOL    HW111776   1.910   3.526   1.809 -1.3178  1.4502 -0.8153
 3728SOL    HW211777   1.908   3.643   1.906  2.0545  2.2900 -1.6197
 3729SOL     OW11778   0.362   2.358   2.932  0.3118  0.2243  0.0069
 3729SOL    HW111779   0.355   2.267   2.963  1.8689  0.1316  0.1653
 3729SOL    HW211780   0.400   2.405   3.006  0.9579  0.6804 -0.6073
 3730SOL     OW11781   6.588   1.948   0.828 -0.4551 -0.6230 -0.2420
 3730SOL    HW111782   6.528   2.020   0.847 -1.8673 -0.9626 -2.8948
 3730SOL    HW211783   6.586   1.893   0.907 -0.6666  1.2960  1.1570
 3731SOL     OW11784   4.778   4.685   3.403 -0.6710 -0.5880 -0.1859
 3731SOL    HW111785   4.805   4.649   3.318 -0.8306  0.4058 -0.6717
 3731SOL    HW211786   4.693   4.726   3.386  0.4803  1.9968 -0.2525
 3732SOL     OW11787   2.885   4.862   2.799 -0.1167  0.5736  0.2237
 3732SOL    HW111788   2.975   4.891   2.785  0.6594 -1.0308  1.5810
 3732SOL    HW211789   2.892   4.768   2.816 -2.1011  0.3375 -0.0479
 3733SOL     OW11790   5.070   4.805   1.777  0.5224  0.0983  0.1981
 3733SOL    HW111791   5.043   4.845   1.694 -0.1268 -0.6641  0.0288
 3733SOL    HW211792   5.153   4.848   1.798  0.2348  0.9642 -0.3690
 3734SOL     OW11793   4.274   4.865   2.198 -0.0953  0.0529 -0.1250
 3734SOL    HW111794   4.331   4.826   2.264 -0.9511  1.2908  1.4086
 3734SOL    HW211795   4.330   4.927   2.152  0.2608 -0.1111  0.0818
 3735SOL     OW11796   0.165   4.522   1.056 -0.3269  0.0120 -0.2639
 3735SOL    HW111797   0.077   4.540   1.021 -0.6920  0.2736  0.7421
 3735SOL    HW211798   0.220   4.592   1.019 -0.6086  0.0509 -0.6230
 3736SOL     OW11799   0.567   2.796   1.490 -0.6511 -0.3277  0.3930
 3736SOL    HW111800   0.525   2.877   1.519  0.1799 -0.1820  1.2179
 3736SOL    HW211801   0.600   2.755   1.570  1.0888 -0.2553 -0.2370
 3737SOL     OW11802   1.115   1.817   2.560  0.5940  0.0991 -0.2595
 3737SOL    HW111803   1.121   1.724   2.537  0.4832  0.2622 -0.9655
 3737SOL    HW211804   1.022   1.833   2.573  0.7667 -0.3653  1.9621
 3738SOL     OW11805   0.502   4.395   1.377 -0.3387 -0.3277  0.0267
 3738SOL    HW111806   0.451   4.356   1.306 -1.7016  0.3757  0.5832
 3738SOL    HW211807   0.548   4.321   1.416 -0.0104 -0.8088 -1.2260
 3739SOL     OW11808   5.246   2.276   1.786 -0.5109 -0.1437 -0.0397
 3739SOL    HW111809   5.257   2.265   1.880  0.9366 -0.7012 -0.2441
 3739SOL    HW211810   5.326   2.320   1.757 -1.2735  0.7171 -0.9134
 3740SOL     OW11811   3.157   0.544   0.134 -0.3302  0.4016  0.1769
 3740SOL    HW111812   3.191   0.486   0.202 -0.3476  0.6778  0.4236
 3740SOL    HW211813   3.134   0.625   0.180  1.7538  1.4449 -0.4633
 3741SOL     OW11814   4.717   1.105   3.421 -0.0898 -0.0354  0.4144
 3741SOL    HW111815   4.626   1.129   3.440  0.0872  1.1354 -0.1266
 3741SOL    HW211816   4.720   1.090   3.327 -0.1182 -1.9875  0.6907
 3742SOL     OW11817   3.502   1.071   0.002  0.1771 -0.4773 -0.1782
 3742SOL    HW111818   3.532   1.059   0.092 -1.4906  0.3724  0.5601
 3742SOL    HW211819   3.491   0.983  -0.033 -0.5355 -0.8683  0.9789
 3743SOL     OW11820   1.732   5.194   0.829 -0.0227  0.5963  0.9805
 3743SOL    HW111821   1.772   5.110   0.807  0.2004  0.8865  0.2237
 3743SOL    HW211822   1.659   5.172   0.886  1.0410  0.0229  2.1678
 3744SOL     OW11823   2.984   0.516   3.409 -0.1838 -0.1221 -0.5233
 3744SOL    HW111824   2.972   0.424   3.386  0.8172 -0.3473 -0.2172
 3744SOL    HW211825   3.060   0.516   3.467  0.5239  1.0214 -1.4160
 3745SOL     OW11826   6.714   3.588   1.808 -0.1163 -0.5275 -0.8217
 3745SOL    HW111827   6.775   3.609   1.879 -0.5383 -0.6228 -0.4219
 3745SOL    HW211828   6.659   3.665   1.800 -0.0549 -0.5089 -1.0623
 3746SOL     OW11829   1.246   1.255   1.182  0.1658 -0.0407 -0.1167
 3746SOL    HW111830   1.247   1.338   1.134 -1.2191 -0.1446 -0.3535
 3746SOL    HW211831   1.224   1.281   1.272 -0.7179 -0.1756 -0.2834
 3747SOL     OW11832   4.093   0.574   0.846 -0.4282 -0.3532 -0.2770
 3747SOL    HW111833   4.140   0.634   0.903  1.2477 -0.9339 -0.9955
 3747SOL    HW211834   4.138   0.580   0.762 -0.6241 -2.1339 -0.5517
 3748SOL     OW11835   2.040   1.040   0.964 -0.6209 -0.0126 -0.3979
 3748SOL    HW111836   2.079   1.023   0.878 -1.7614  0.7335 -1.0941
 3748SOL    HW211837   1.976   1.109   0.947 -2.6798 -1.5909  0.5633
 3749SOL     OW11838   1.549   1.253   1.617  0.5603 -0.1511 -0.1933
 3749SOL    HW111839   1.513   1.281   1.533 -3.2732  0.2192  1.3737
 3749SOL    HW211840   1.499   1.174   1.640  2.0763 -0.7344  1.3833
 3750SOL     OW11841   3.817   4.303   1.852 -0.5932 -0.2034  0.2767
 3750SOL    HW111842   3.797   4.247   1.927 -2.1637  0.5516  0.4537
 3750SOL    HW211843   3.863   4.378   1.891  1.1410 -1.0990  0.0875
 3751SOL     OW11844   5.893   4.355   0.634  0.5575 -0.1148  0.1385
 3751SOL    HW111845   5.897   4.259   0.625  2.0172 -0.0049 -0.6502
 3751SOL    HW211846   5.952   4.375   0.706  1.3862  0.2917 -0.6386
 3752SOL     OW11847   0.312   3.177   2.962 -0.3682  0.0896 -0.3459
 3752SOL    HW111848   0.243   3.227   2.918 -0.5755  0.2000  0.0957
 3752SOL    HW211849   0.274   3.152   3.046  0.9286  2.2675  0.9957
 3753SOL     OW11850   2.556   4.573   3.175 -0.3329  0.0893  0.1898
 3753SOL    HW111851   2.570   4.667   3.175  0.0361  0.0517  1.3262
 3753SOL    HW211852   2.551   4.549   3.268  0.2010 -1.0914 -0.0597
 3754SOL     OW11853   2.253   2.082   2.460 -0.2320  0.1188 -0.1803
 3754SOL    HW111854   2.189   2.090   2.531  2.9795 -0.0393  3.0601
 3754SOL    HW211855   2.313   2.156   2.474  0.5701  0.0528 -2.7767
 3755SOL     OW11856   1.733   2.480   2.346  1.1488  0.3189 -0.0813
 3755SOL    HW111857   1.760   2.485   2.254  1.6331  1.3697  0.0952
 3755SOL    HW211858   1.813   2.457   2.392  0.6910 -1.2021 -0.0049
 3756SOL     OW11859   6.893   0.364   2.428  0.2284  0.0929  0.4954
 3756SOL    HW111860   6.883   0.306   2.503  0.8701  1.1585  1.4247
 3756SOL    HW211861   6.977   0.338   2.388  0.3392  0.1342  0.7006
 3757SOL     OW11862   3.300   5.135   1.010 -0.0068  0.3149  0.6580
 3757SOL    HW111863   3.366   5.164   0.947 -0.7353 -0.5100 -0.5149
 3757SOL    HW211864   3.227   5.103   0.957 -1.5616  1.5770  1.9205
 3758SOL     OW11865   1.937   2.877   2.772  0.4332 -0.5135 -0.4048
 3758SOL    HW111866   1.944   2.820   2.849  0.4186  0.2993  0.2164
 3758SOL    HW211867   1.998   2.839   2.709  0.3633 -1.2653 -0.0415
 3759SOL     OW11868   1.651   4.753   2.828 -0.4865 -0.3229 -0.5780
 3759SOL    HW111869   1.720   4.805   2.868  1.3309 -1.9466 -1.4217
 3759SOL    HW211870   1.579   4.755   2.891  0.6641  0.6814  0.7511
 3760SOL     OW11871   7.068   4.859   1.325  0.1057 -0.4489 -0.0534
 3760SOL    HW111872   7.089   4.914   1.400 -0.9727 -0.8407  0.5470
 3760SOL    HW211873   7.002   4.908   1.276 -1.1010 -1.3163  0.6584
 3761SOL     OW11874   5.426   0.977   0.106 -0.9903 -0.3548  0.0480
 3761SOL    HW111875   5.521   0.988   0.112 -0.9914 -0.4280  0.2304
 3761SOL    HW211876   5.404   1.007   0.018 -0.8486  0.0404  0.1429
 3762SOL     OW11877   4.049   1.113   1.534  0.2121  0.4238 -0.3579
 3762SOL    HW111878   4.141   1.122   1.558  0.1813 -1.5800  0.6939
 3762SOL    HW211879   4.041   1.159   1.450  1.6569  2.4936  0.5497
 3763SOL     OW11880   5.424   1.531   2.155 -0.4178  0.6767 -0.4745
 3763SOL    HW111881   5.409   1.570   2.242  0.1095  0.9490 -0.5000
 3763SOL    HW211882   5.343   1.547   2.108 -0.4510  1.1636 -0.2626
 3764SOL     OW11883   1.593   2.386   1.445  0.4089  0.3955  0.1089
 3764SOL    HW111884   1.671   2.348   1.403  1.8769  0.8322  2.2814
 3764SOL    HW211885   1.531   2.398   1.373  1.6776 -1.5925 -1.4351
 3765SOL     OW11886   4.461   1.043   3.345 -0.2627  0.0147 -0.3188
 3765SOL    HW111887   4.395   1.007   3.405 -0.7568 -0.3108 -1.0497
 3765SOL    HW211888   4.411   1.073   3.270  0.3264  0.7121 -0.4365
 3766SOL     OW11889   5.505   1.924   0.630 -0.0499  0.7834  0.3240
 3766SOL    HW111890   5.524   1.859   0.563 -1.0858 -1.0504  1.7369
 3766SOL    HW211891   5.417   1.955   0.610 -0.5474 -0.1143  1.0890
 3767SOL     OW11892   4.660   2.842   3.163 -0.2263  0.0407  0.0752
 3767SOL    HW111893   4.635   2.784   3.091 -0.1826  1.0586 -0.7835
 3767SOL    HW211894   4.590   2.832   3.228 -1.8571  1.3220 -1.3990
 3768SOL     OW11895   1.237   3.891   1.090 -0.5097  0.3609  0.0000
 3768SOL    HW111896   1.270   3.924   1.007  0.0861  0.3727  0.2283
 3768SOL    HW211897   1.230   3.969   1.146 -0.9676  0.3622 -0.0617
 3769SOL     OW11898   6.494   4.913   2.294 -0.0454 -0.1508 -0.5904
 3769SOL    HW111899   6.578   4.885   2.257 -0.6394 -2.2951 -0.4820
 3769SOL    HW211900   6.462   4.981   2.235  0.3235 -1.5200 -2.4419
 3770SOL     OW11901   4.946   0.693   2.893 -0.4097  0.6092  0.2757
 3770SOL    HW111902   4.925   0.617   2.947  2.3652 -1.4246 -1.2348
 3770SOL    HW211903   4.964   0.763   2.956  0.4973 -1.0314  1.9247
 3771SOL     OW11904   3.863   0.346   3.039 -0.2850  0.4970  0.0268
 3771SOL    HW111905   3.809   0.354   2.960  1.7132  0.0030 -1.4738
 3771SOL    HW211906   3.887   0.436   3.060 -1.5273  0.7095  0.6260
 3772SOL     OW11907   5.210   1.730   0.839 -0.0462  0.6564  0.2592
 3772SOL    HW111908   5.215   1.824   0.819  0.7040  1.1848  2.6316
 3772SOL    HW211909   5.289   1.693   0.801  0.1846  1.1644  0.2351
 3773SOL     OW11910   6.474   5.203   0.357  0.3953 -0.3963 -0.6464
 3773SOL    HW111911   6.462   5.167   0.444  0.6911 -0.7075 -0.7330
 3773SOL    HW211912   6.524   5.284   0.370  0.0293 -0.1928 -0.4860
 3774SOL     OW11913   6.756   3.233   2.309  0.3008  0.0419 -0.2990
 3774SOL    HW111914   6.729   3.250   2.400  0.5118 -1.0876 -0.0025
 3774SOL    HW211915   6.680   3.189   2.270  0.6074 -0.4726 -0.3303
 3775SOL     OW11916   0.257   4.952   0.394  0.0067 -0.4851 -0.1301
 3775SOL    HW111917   0.171   4.952   0.435 -0.0299 -0.6927 -0.2109
 3775SOL    HW211918   0.314   4.991   0.461 -0.1487 -0.3400 -0.0803
 3776SOL     OW11919   0.590   0.160   2.653 -0.1775  0.2566  0.0008
 3776SOL    HW111920   0.528   0.233   2.644  0.8787  1.0368 -1.4102
 3776SOL    HW211921   0.596   0.123   2.565  0.4492 -0.5815  0.3799
 3777SOL     OW11922   0.784   5.317   2.212 -0.5018  0.1452  0.3619
 3777SOL    HW111923   0.737   5.316   2.129 -1.2547  1.3360  0.7411
 3777SOL    HW211924   0.825   5.231   2.218  2.1611  1.0090 -2.6624
 3778SOL     OW11925   4.712   0.300   3.035  0.0745 -0.3661  0.2656
 3778SOL    HW111926   4.619   0.304   3.056 -0.1892 -2.4342 -0.2868
 3778SOL    HW211927   4.722   0.221   2.983  1.7709  1.0859 -1.8057
 3779SOL     OW11928   1.337   1.004   2.410  0.0507 -0.1164  0.1483
 3779SOL    HW111929   1.347   1.095   2.380  0.4717  0.3543  1.6259
 3779SOL    HW211930   1.332   1.011   2.505  0.3770 -1.6771  0.3013
 3780SOL     OW11931   1.423   4.544   2.098 -0.8000 -0.1051  0.4132
 3780SOL    HW111932   1.488   4.487   2.139  0.5609  1.0339 -0.0451
 3780SOL    HW211933   1.386   4.491   2.027  1.9023  0.1169 -1.3338
 3781SOL     OW11934   1.926   0.850   2.843  0.2091  0.2524  0.1279
 3781SOL    HW111935   1.886   0.862   2.929 -0.7235  1.0226 -0.3940
 3781SOL    HW211936   1.893   0.923   2.791 -0.1197 -0.8115 -1.2046
 3782SOL     OW11937   2.345   0.752   3.153  0.4993 -0.4748 -0.1362
 3782SOL    HW111938   2.358   0.698   3.075  0.6668  0.1928 -0.5776
 3782SOL    HW211939   2.391   0.704   3.222  1.1849 -0.5905 -0.6567
 3783SOL     OW11940   6.479   0.853   3.290 -0.3099  0.6642 -0.3589
 3783SOL    HW111941   6.472   0.770   3.337 -1.3213  0.5149 -0.7497
 3783SOL    HW211942   6.502   0.917   3.357  0.9561 -0.0016 -0.1332
 3784SOL     OW11943   7.172   2.329   3.200 -0.2817  0.8168  0.3248
 3784SOL    HW111944   7.256   2.345   3.245  1.4901 -2.5886 -1.4121
 3784SOL    HW211945   7.193   2.335   3.107 -1.4872 -1.8023 -0.1996
 3785SOL     OW11946   7.049   5.274   3.014  0.2844 -0.5626 -0.0908
 3785SOL    HW111947   7.042   5.185   2.980  0.3494 -0.0221 -1.6262
 3785SOL    HW211948   6.965   5.291   3.056  0.8226 -1.8563  1.6027
 3786SOL     OW11949   0.724   4.467   2.650  0.3780 -0.3961 -0.0875
 3786SOL    HW111950   0.723   4.555   2.689  1.6537 -0.5005  0.2103
 3786SOL    HW211951   0.776   4.415   2.711  1.2415 -0.9035 -1.2351
 3787SOL     OW11952   4.814   4.803   1.365  0.2109 -0.3796  0.1547
 3787SOL    HW111953   4.812   4.758   1.281  0.7027 -0.5606  0.2358
 3787SOL    HW211954   4.803   4.733   1.430 -0.1847 -0.2390  0.2428
 3788SOL     OW11955   5.786   3.036   2.912 -0.3489  0.3455 -0.0056
 3788SOL    HW111956   5.735   2.957   2.929  0.3751 -0.1668 -0.1693
 3788SOL    HW211957   5.835   3.016   2.832 -0.5262  1.1407 -0.3161
 3789SOL     OW11958   1.818   0.485   3.392 -0.2144  0.0217  0.1599
 3789SOL    HW111959   1.899   0.441   3.416  0.6415 -0.2229 -2.7570
 3789SOL    HW211960   1.771   0.421   3.338 -0.8257  1.2607 -0.8342
 3790SOL     OW11961   4.072   3.336   0.601  0.6605  0.8882 -0.0442
 3790SOL    HW111962   4.154   3.337   0.552  0.1699  0.3871 -0.9003
 3790SOL    HW211963   4.089   3.279   0.676  0.8651  0.1399 -0.6493
 3791SOL     OW11964   5.309   2.760   1.367  0.0507 -0.2093  0.1694
 3791SOL    HW111965   5.279   2.823   1.301 -3.5972  1.3638  2.9419
 3791SOL    HW211966   5.389   2.799   1.403 -0.5196  1.3943 -0.1847
 3792SOL     OW11967   0.876   0.140   2.643  0.0249 -0.1187  0.1377
 3792SOL    HW111968   0.908   0.168   2.729 -0.4936  0.8655  0.0232
 3792SOL    HW211969   0.783   0.162   2.644 -0.3987 -1.7748 -0.0119
 3793SOL     OW11970   2.144   2.740   2.665 -0.0498  0.1299  0.1595
 3793SOL    HW111971   2.228   2.771   2.632  1.3784  0.7053  3.7979
 3793SOL    HW211972   2.167   2.686   2.741 -2.9689  0.7183  1.6096
 3794SOL     OW11973   7.210   3.552   0.480 -0.7359 -0.1018 -0.0289
 3794SOL    HW111974   7.199   3.632   0.428  2.6513  1.4942  1.3979
 3794SOL    HW211975   7.198   3.581   0.570  2.4403 -0.6142  0.6745
 3795SOL     OW11976   6.211   0.795   0.494 -0.4106  0.0131  0.6436
 3795SOL    HW111977   6.181   0.820   0.407 -0.0660 -0.1850  0.4679
 3795SOL    HW211978   6.267   0.867   0.522 -2.1483  1.0982  1.5708
 3796SOL     OW11979   5.208   4.980   0.487  0.0897 -0.1331 -0.2875
 3796SOL    HW111980   5.122   4.944   0.510 -0.8578  1.3083 -1.4031
 3796SOL    HW211981   5.250   4.997   0.571 -0.7278 -0.8127  0.2773
 3797SOL     OW11982   4.541   4.086   0.043  0.0871 -0.2970 -0.2529
 3797SOL    HW111983   4.580   4.011   0.088 -0.1967  0.1892  0.8407
 3797SOL    HW211984   4.616   4.134   0.008  0.3966 -0.0769  0.6906
 3798SOL     OW11985   5.972   2.827   0.090  0.3221  0.4553 -0.1294
 3798SOL    HW111986   6.010   2.896   0.144  3.6843 -1.0123 -0.3546
 3798SOL    HW211987   5.953   2.756   0.151  1.1392 -0.0395 -0.4338
 3799SOL     OW11988   5.557   0.927   3.105  0.0000  1.0945 -0.1141
 3799SOL    HW111989   5.575   0.998   3.044  0.7428 -1.0550 -2.5822
 3799SOL    HW211990   5.470   0.896   3.081  0.1879  0.3753  0.1010
 3800SOL     OW11991   2.002   0.025   1.743 -0.5691 -0.2075  0.1117
 3800SOL    HW111992   1.945  -0.012   1.810 -1.3620 -2.6506 -1.7272
 3800SOL    HW211993   1.947   0.029   1.665  0.5372  1.7507 -0.6309
 3801SOL     OW11994   0.746   4.211   0.943  0.2382  0.2593 -0.0698
 3801SOL    HW111995   0.699   4.177   1.019 -0.4981 -0.4242 -0.8008
 3801SOL    HW211996   0.786   4.293   0.973 -0.9695  0.5778  0.7456
 3802SOL     OW11997   2.345   1.703   1.469 -0.3473 -0.4521  0.0218
 3802SOL    HW111998   2.439   1.694   1.483  0.0343 -0.4035 -2.1548
 3802SOL    HW211999   2.336   1.786   1.422 -1.4483 -0.5974 -0.0508
 3803SOL     OW12000   1.484   4.034   1.392  0.2862  0.0520  0.4202
 3803SOL    HW112001   1.428   4.043   1.314  0.3234  4.2278  0.6222
 3803SOL    HW212002   1.423   4.042   1.466  0.7519  2.0630  0.6570
 3804SOL     OW12003   4.985   4.312   3.231  0.2997 -0.8067 -0.6252
 3804SOL    HW112004   4.990   4.254   3.307 -1.6220  0.5871  0.6906
 3804SOL    HW212005   5.076   4.328   3.206  0.9669 -1.7910  1.0082
 3805SOL     OW12006   7.078   1.153   1.713  0.7283  0.1242 -0.1179
 3805SOL    HW112007   7.060   1.219   1.647  1.1819 -0.5465 -0.9308
 3805SOL    HW212008   7.173   1.141   1.711  0.6020 -0.9655 -0.4085
 3806SOL     OW12009   3.520   2.000   0.324 -0.1668  0.4248 -0.3959
 3806SOL    HW112010   3.563   1.915   0.322 -1.3505 -0.2032 -0.4347
 3806SOL    HW212011   3.583   2.059   0.366 -0.1573 -0.9816  1.7258
 3807SOL     OW12012   3.137   3.899   0.293 -0.4664 -0.2412  0.8561
 3807SOL    HW112013   3.181   3.843   0.357 -0.5058 -0.3244  0.8090
 3807SOL    HW212014   3.044   3.881   0.305 -0.5828  0.9352  1.9141
 3808SOL     OW12015   7.008   2.985   0.474 -0.1062  0.4977 -0.3157
 3808SOL    HW112016   7.054   3.035   0.542 -0.5866  0.4415  0.0542
 3808SOL    HW212017   7.051   2.900   0.473  2.3484  1.5985 -2.5946
 3809SOL     OW12018   5.279   0.549   3.216 -0.4109  0.1031 -0.7690
 3809SOL    HW112019   5.333   0.473   3.239  0.4560  0.6671 -0.9192
 3809SOL    HW212020   5.194   0.531   3.257  0.1490 -0.3838  0.2037
 3810SOL     OW12021   5.853   0.538   2.520  0.0697  0.0971  0.1347
 3810SOL    HW112022   5.887   0.516   2.607 -0.6828  1.0997  0.7026
 3810SOL    HW212023   5.829   0.453   2.482 -0.0616 -0.3208  1.1124
 3811SOL     OW12024   4.777   2.727   2.152  0.4144  0.4947  0.5895
 3811SOL    HW112025   4.762   2.817   2.121 -1.5472  0.0611  0.1343
 3811SOL    HW212026   4.867   2.708   2.128  0.3940  1.8226 -0.6788
 3812SOL     OW12027   4.660   1.094   2.385 -0.0866  0.1327 -0.7421
 3812SOL    HW112028   4.572   1.057   2.384  0.8564 -2.6252  2.3099
 3812SOL    HW212029   4.690   1.085   2.294 -2.3280 -0.3405 -1.5118
 3813SOL     OW12030   1.461   1.885   3.334  0.3644 -0.0143  0.0760
 3813SOL    HW112031   1.460   1.979   3.351 -1.1058  0.0532 -0.3009
 3813SOL    HW212032   1.476   1.877   3.240 -4.1446  0.0874 -0.8642
 3814SOL     OW12033   5.233   1.575   1.491  0.0677  0.2347  0.3306
 3814SOL    HW112034   5.186   1.644   1.444 -0.0019 -0.0754 -0.0547
 3814SOL    HW212035   5.217   1.496   1.440 -1.2720 -0.4166  1.6927
 3815SOL     OW12036   1.831   5.063   0.452 -0.3443  0.0238  0.1272
 3815SOL    HW112037   1.741   5.092   0.464 -0.3952 -0.0749 -0.0048
 3815SOL    HW212038   1.823   4.969   0.436 -0.1797 -0.0689  0.5872
 3816SOL     OW12039   4.857   1.656   3.289  0.3108 -0.2313  0.2265
 3816SOL    HW112040   4.822   1.655   3.200 -0.8991 -0.0282  0.6697
 3816SOL    HW212041   4.819   1.579   3.330  0.3562  0.0146  0.7407
 3817SOL     OW12042   0.133   5.067   1.319  0.5302 -0.0468 -0.2445
 3817SOL    HW112043   0.163   5.011   1.390  0.4827  0.7437  0.4180
 3817SOL    HW212044   0.056   5.022   1.284  0.0037 -0.0012  0.8067
 3818SOL     OW12045   6.015   3.586   1.275 -0.0865  0.3863  0.3785
 3818SOL    HW112046   6.089   3.543   1.233 -0.4250  0.5353 -0.3991
 3818SOL    HW212047   6.033   3.581   1.369  0.2638 -0.7356  0.2597
 3819SOL     OW12048   2.551   1.017   3.229  0.3669 -0.2943 -0.8124
 3819SOL    HW112049   2.544   1.002   3.134 -0.1259 -0.2487 -0.7826
 3819SOL    HW212050   2.567   1.111   3.237 -0.3313 -0.1709 -0.8179
 3820SOL     OW12051   2.836   3.555   3.284  0.1096 -0.0207  0.1594
 3820SOL    HW112052   2.912   3.610   3.301  0.0449 -0.1152  0.7849
 3820SOL    HW212053   2.815   3.516   3.369 -0.7913  0.2056  0.0547
 3821SOL     OW12054   0.217   3.584   1.046 -0.1076  0.5255 -0.1177
 3821SOL    HW112055   0.238   3.498   1.083  1.2394  0.8636 -0.0575
 3821SOL    HW212056   0.130   3.605   1.081  0.7410  0.4498  2.1829
 3822SOL     OW12057   4.667   2.057   2.387 -0.5610  0.3846 -0.4093
 3822SOL    HW112058   4.701   2.005   2.314  0.9416  1.7206 -0.7018
 3822SOL    HW212059   4.599   2.001   2.425 -0.6610 -0.7928 -2.1567
 3823SOL     OW12060   2.212   1.229   0.407 -0.4515 -0.7242  0.0222
 3823SOL    HW112061   2.263   1.272   0.338  0.2621 -0.0815  0.9202
 3823SOL    HW212062   2.228   1.136   0.394 -0.5424 -0.6281 -0.8432
 3824SOL     OW12063   4.218   0.619   3.320  0.4599 -0.8019 -0.4286
 3824SOL    HW112064   4.178   0.698   3.283  3.0333  1.0365  0.4033
 3824SOL    HW212065   4.177   0.609   3.406  1.5696  0.9622  0.3622
 3825SOL     OW12066   6.460   2.760   1.307  0.5801  0.3590  0.0311
 3825SOL    HW112067   6.452   2.760   1.403 -0.5630 -0.1122 -0.0518
 3825SOL    HW212068   6.384   2.808   1.276  0.7788  0.2442 -0.6524
 3826SOL     OW12069   4.388   2.317   0.390  0.3280  0.3110 -0.2903
 3826SOL    HW112070   4.316   2.372   0.358 -1.3149 -0.5276  1.6865
 3826SOL    HW212071   4.456   2.379   0.417 -0.8218  1.3315  0.3726
 3827SOL     OW12072   6.274   2.135   1.704 -0.1610  0.2516  0.5522
 3827SOL    HW112073   6.283   2.213   1.759 -1.0392 -0.4006  1.6764
 3827SOL    HW212074   6.224   2.074   1.758  3.0397 -2.2888  0.9778
 3828SOL     OW12075   1.437   1.927   2.137 -0.3695  0.0334 -0.0582
 3828SOL    HW112076   1.518   1.876   2.146 -0.2567 -0.1879 -2.0396
 3828SOL    HW212077   1.367   1.861   2.134 -0.6965  0.2338  1.9175
 3829SOL     OW12078   6.371   3.822   0.942  0.2373 -0.2947  0.6606
 3829SOL    HW112079   6.350   3.837   1.034  0.6327 -1.4987  0.9705
 3829SOL    HW212080   6.352   3.905   0.899 -0.4008  0.1432  1.7469
 3830SOL     OW12081   3.456   0.313   3.030 -0.3579  0.4270  0.0778
 3830SOL    HW112082   3.387   0.367   2.992 -0.4864  1.0792  1.2001
 3830SOL    HW212083   3.410   0.252   3.087 -0.1616 -0.4855 -0.7259
 3831SOL     OW12084   0.290   1.618   0.066 -0.2601 -0.0145 -0.4562
 3831SOL    HW112085   0.283   1.543   0.007 -0.2274  0.2482 -0.7980
 3831SOL    HW212086   0.202   1.629   0.101 -0.5044  0.4114 -1.1846
 3832SOL     OW12087   0.003   4.910   1.682 -0.2728  0.1840  0.7850
 3832SOL    HW112088  -0.037   4.827   1.657 -0.8817  0.7470 -0.1897
 3832SOL    HW212089   0.081   4.916   1.626 -0.0179  0.0983  1.1272
 3833SOL     OW12090   5.832   4.780   2.604  0.1047  0.5673  0.3365
 3833SOL    HW112091   5.856   4.817   2.689 -1.0053  1.9790  0.0701
 3833SOL    HW212092   5.786   4.699   2.626 -0.6955  1.2113  1.1404
 3834SOL     OW12093   2.232   3.952   1.026  0.0032 -0.0040 -0.1431
 3834SOL    HW112094   2.224   3.895   0.949 -1.6069 -0.0416  0.0208
 3834SOL    HW212095   2.326   3.965   1.036  0.2445  0.5819 -2.5476
 3835SOL     OW12096   2.068   4.848   3.231 -0.2712 -0.2310 -0.3506
 3835SOL    HW112097   2.036   4.777   3.176  0.5614 -0.5784 -0.4076
 3835SOL    HW212098   2.144   4.883   3.184  0.0069 -0.0517  0.2143
 3836SOL     OW12099   6.053   0.821   0.228 -0.1595 -0.1268 -0.1424
 3836SOL    HW112100   5.986   0.776   0.279 -1.5834  0.1709 -1.6595
 3836SOL    HW212101   6.030   0.803   0.137  0.7675  1.4899 -0.7448
 3837SOL     OW12102   2.597   3.944   0.014  0.0014  0.1607 -0.3227
 3837SOL    HW112103   2.566   3.858  -0.013 -1.4089 -0.1041  1.9152
 3837SOL    HW212104   2.521   3.986   0.056  1.2428  1.6060  0.6115
 3838SOL     OW12105   2.022   5.239   2.168  0.3166  0.3383 -0.1128
 3838SOL    HW112106   2.070   5.192   2.100 -0.1296 -0.2102 -0.0563
 3838SOL    HW212107   2.067   5.215   2.250 -0.3131 -0.5427 -0.0072
 3839SOL     OW12108   3.159   4.889   0.924  0.6640 -0.0607 -0.6428
 3839SOL    HW112109   3.101   4.813   0.922  1.2401 -0.5011 -2.0158
 3839SOL    HW212110   3.218   4.873   0.997 -1.5989  0.9671  1.5911
 3840SOL     OW12111   0.415   4.749   3.437  0.4441 -0.4899 -0.7178
 3840SOL    HW112112   0.450   4.794   3.514 -2.3715 -2.4816  1.9619
 3840SOL    HW212113   0.491   4.710   3.395  2.0901  0.5088  1.1744
 3841SOL     OW12114   0.887   1.863   0.351 -0.4517  0.2406  0.3548
 3841SOL    HW112115   0.879   1.951   0.387 -1.7458 -0.2801  1.4409
 3841SOL    HW212116   0.845   1.807   0.416  1.4629 -1.3633  0.3085
 3842SOL     OW12117   0.943   2.100   2.229 -0.0072 -0.0486 -0.1437
 3842SOL    HW112118   1.013   2.036   2.244 -0.5019 -0.9330 -1.4726
 3842SOL    HW212119   0.951   2.124   2.137 -2.1267 -1.0480 -0.6678
 3843SOL     OW12120   1.725   1.202   3.366  0.5143  0.1908  0.1295
 3843SOL    HW112121   1.658   1.149   3.410 -0.5083  0.2921 -1.2691
 3843SOL    HW212122   1.808   1.168   3.401 -0.1973 -0.9525  0.7814
 3844SOL     OW12123   5.507   2.771   0.921 -0.5897  0.0641 -0.1823
 3844SOL    HW112124   5.487   2.688   0.966  2.2382 -1.2317 -1.1108
 3844SOL    HW212125   5.502   2.750   0.828  1.9891  0.3390 -0.4609
 3845SOL     OW12126   6.054   2.161   0.890 -0.0913  0.4729 -0.3601
 3845SOL    HW112127   6.091   2.073   0.886 -0.7325  0.2028 -0.5153
 3845SOL    HW212128   5.977   2.152   0.946  0.8089  1.2995  1.0917
 3846SOL     OW12129   2.649   5.116   0.737 -0.4374 -0.0206 -0.0746
 3846SOL    HW112130   2.720   5.052   0.728 -0.8468 -0.4087 -0.6832
 3846SOL    HW212131   2.576   5.077   0.688 -1.5954 -0.3734  1.8329
 3847SOL     OW12132   6.261   0.002   2.679  0.1577 -0.1983 -0.2318
 3847SOL    HW112133   6.191   0.067   2.691 -0.9906 -1.3014 -0.7088
 3847SOL    HW212134   6.280   0.003   2.586  0.0201 -0.6258 -0.2715
 3848SOL     OW12135   7.011   1.096   1.161  0.2042  0.2015  0.3734
 3848SOL    HW112136   7.037   1.158   1.230  0.9353  0.4675 -0.1258
 3848SOL    HW212137   7.074   1.111   1.091 -1.0415  0.5328 -0.7172
 3849SOL     OW12138   6.882   2.982   1.977  0.3097  0.0571  0.5385
 3849SOL    HW112139   6.878   2.952   1.887  0.9835  1.4083  0.0247
 3849SOL    HW212140   6.801   3.032   1.990  0.8576  1.0644  0.2004
 3850SOL     OW12141   2.125   4.498   2.345 -0.6815 -0.8861 -0.0110
 3850SOL    HW112142   2.199   4.453   2.385 -1.3707 -2.6636 -0.6215
 3850SOL    HW212143   2.143   4.591   2.358  1.9576 -1.2239 -0.6800
 3851SOL     OW12144   6.630   4.471   3.278  0.0805  0.5661 -0.3259
 3851SOL    HW112145   6.656   4.444   3.190  0.9651  0.0750  0.0740
 3851SOL    HW212146   6.621   4.389   3.326  4.0748  0.8148  1.2757
 3852SOL     OW12147   0.562   4.065   0.492 -0.3535 -0.1617  0.0898
 3852SOL    HW112148   0.476   4.097   0.518 -0.3988 -0.5083  0.3797
 3852SOL    HW212149   0.623   4.129   0.528 -0.4631 -0.2055  0.3581
 3853SOL     OW12150   5.444   0.119   0.798 -0.5681  0.0592 -0.3964
 3853SOL    HW112151   5.359   0.143   0.762 -0.6656 -0.1381 -0.2979
 3853SOL    HW212152   5.424   0.067   0.876 -0.3668 -0.6693 -0.8238
 3854SOL     OW12153   2.691   2.516   2.899  0.2765  0.1402  0.6121
 3854SOL    HW112154   2.683   2.481   2.810 -1.2819 -1.8666  1.4381
 3854SOL    HW212155   2.765   2.468   2.937 -0.7775 -1.1090  1.1975
 3855SOL     OW12156   0.467   4.971   0.578 -0.4645 -0.8736  0.6091
 3855SOL    HW112157   0.535   5.037   0.566  0.3398 -1.6700  0.6160
 3855SOL    HW212158   0.429   4.990   0.664 -0.9079  0.1484  0.2018
 3856SOL     OW12159   0.663   2.132   2.925  0.4362 -0.8469  0.4929
 3856SOL    HW112160   0.711   2.178   2.856 -0.0674  3.7148  2.7539
 3856SOL    HW212161   0.607   2.071   2.879  0.4936  1.5145 -3.1509
 3857SOL     OW12162   2.725   1.270   0.326  0.0615 -0.3863  0.0356
 3857SOL    HW112163   2.649   1.227   0.366 -1.0282  0.4625 -1.0518
 3857SOL    HW212164   2.744   1.217   0.248  0.6519 -0.6389  0.3432
 3858SOL     OW12165   0.710   3.826   1.849  0.7922 -0.0071 -0.0824
 3858SOL    HW112166   0.627   3.872   1.838  1.1253  0.5351 -0.3589
 3858SOL    HW212167   0.732   3.838   1.942  0.8285  0.3143 -0.1306
 3859SOL     OW12168   2.228   2.892   0.989  0.0151  0.0756  0.4370
 3859SOL    HW112169   2.266   2.804   0.985  0.0505  0.0961  0.3073
 3859SOL    HW212170   2.198   2.909   0.900  0.7915  0.5366  0.2549
 3860SOL     OW12171   3.871   0.082   3.108 -0.0609 -0.1548 -0.1827
 3860SOL    HW112172   3.881   0.177   3.097  0.3460 -0.3254 -1.3488
 3860SOL    HW212173   3.815   0.073   3.185 -0.1475  1.0328 -0.0894
 3861SOL     OW12174   3.882   4.499   0.004  0.1532  0.7199  0.2017
 3861SOL    HW112175   3.964   4.472   0.045  1.2606  3.0481 -0.2792
 3861SOL    HW212176   3.819   4.504   0.076  0.1219 -1.9291  0.4516
 3862SOL     OW12177   3.992   4.669   3.305  0.5029 -0.3209  0.2108
 3862SOL    HW112178   3.962   4.614   3.378  1.4644  0.0221  0.8946
 3862SOL    HW212179   3.988   4.758   3.339 -0.8406  0.0426 -0.8249
 3863SOL     OW12180   0.293   1.845   2.601 -0.2290 -0.3362  0.1653
 3863SOL    HW112181   0.240   1.765   2.609 -2.1880  1.0082  1.5421
 3863SOL    HW212182   0.276   1.893   2.682  0.4996  1.7132 -0.8324
 3864SOL     OW12183   5.165   2.134   2.932  0.5328 -0.2282 -0.0009
 3864SOL    HW112184   5.118   2.188   2.996 -1.1963 -2.2731  0.5671
 3864SOL    HW212185   5.173   2.049   2.975  3.9609 -0.2911 -0.5049
 3865SOL     OW12186   4.483   4.895   0.100 -0.3463 -0.2586  0.7855
 3865SOL    HW112187   4.569   4.929   0.126 -0.4711 -0.3094  1.2802
 3865SOL    HW212188   4.436   4.972   0.067  0.2349 -0.4154 -0.4296
 3866SOL     OW12189   1.597   1.762   2.440 -0.0716 -0.1181  0.6668
 3866SOL    HW112190   1.583   1.852   2.410  0.7670 -0.0097  0.5710
 3866SOL    HW212191   1.688   1.743   2.416  0.6010 -0.1023  2.9076
 3867SOL     OW12192   1.513   2.320   2.374 -0.0320  0.5658  0.3256
 3867SOL    HW112193   1.584   2.384   2.371 -0.4853  1.0791  0.3930
 3867SOL    HW212194   1.495   2.299   2.282 -0.6497  1.4094  0.2393
 3868SOL     OW12195   3.307   1.964   1.176 -0.4149 -0.0942 -0.2525
 3868SOL    HW112196   3.374   1.899   1.154 -1.1036  0.0284 -3.0194
 3868SOL    HW212197   3.357   2.044   1.194  0.2597 -0.0784 -1.9810
 3869SOL     OW12198   6.517   2.902   0.850 -0.0550 -0.0314 -0.4192
 3869SOL    HW112199   6.592   2.856   0.815 -0.0688 -0.1954 -0.2383
 3869SOL    HW212200   6.532   2.905   0.945 -0.1533  0.1546 -0.4076
 3870SOL     OW12201   2.434   0.295   0.541  0.0757  0.4403  0.0974
 3870SOL    HW112202   2.359   0.335   0.584 -0.7891  0.2277 -1.1674
 3870SOL    HW212203   2.397   0.249   0.466  1.1482 -1.8851  0.8952
 3871SOL     OW12204   1.432   0.184   1.205  0.3929 -0.0674 -0.4983
 3871SOL    HW112205   1.441   0.225   1.291 -1.0865 -0.6004 -0.0622
 3871SOL    HW212206   1.357   0.125   1.214 -0.1449  0.2820 -2.3095
 3872SOL     OW12207   1.057   4.551   1.211 -0.4735 -0.2760 -0.2270
 3872SOL    HW112208   1.013   4.470   1.238 -0.6724  0.1069  0.6023
 3872SOL    HW212209   1.149   4.526   1.205 -0.5723 -0.6408 -0.2839
 3873SOL     OW12210   6.283   1.837   3.187  0.4777 -0.2768  0.8602
 3873SOL    HW112211   6.250   1.764   3.136  0.7898  1.0516 -1.3458
 3873SOL    HW212212   6.366   1.861   3.146  1.1334  0.3873  2.4603
 3874SOL     OW12213   4.466   4.648   0.535  0.2155 -0.5366  0.2444
 3874SOL    HW112214   4.463   4.743   0.543  0.9299 -0.5082  0.2243
 3874SOL    HW212215   4.538   4.631   0.475 -1.0707 -1.0246 -1.2399
 3875SOL     OW12216   1.967   4.126   1.314  0.0432 -0.6282 -0.0677
 3875SOL    HW112217   2.017   4.083   1.384 -1.4178 -0.7799  0.9298
 3875SOL    HW212218   1.913   4.190   1.360 -1.4136 -1.1593 -0.9839
 3876SOL     OW12219   1.829   0.493   2.304  0.1681  0.2023  0.5924
 3876SOL    HW112220   1.761   0.485   2.371 -0.2467  1.6312  0.3624
 3876SOL    HW212221   1.908   0.517   2.353  0.6145 -1.6700  0.8862
 3877SOL     OW12222   5.870   4.798   1.262  0.3235  0.9238 -0.2876
 3877SOL    HW112223   5.904   4.819   1.349  3.1393 -1.0297 -0.7820
 3877SOL    HW212224   5.901   4.869   1.206  0.4140  1.0538 -0.0727
 3878SOL     OW12225   3.244   1.891   0.775  0.4023 -0.4521  0.3315
 3878SOL    HW112226   3.305   1.841   0.721 -0.7735  0.0855 -1.5771
 3878SOL    HW212227   3.161   1.844   0.768  0.1760 -0.2979  1.6186
 3879SOL     OW12228   2.343   1.334   2.759 -0.3597 -0.1682  0.0906
 3879SOL    HW112229   2.267   1.283   2.731 -0.0175 -1.2635  1.0816
 3879SOL    HW212230   2.399   1.338   2.682 -1.3179  0.4872 -0.5942
 3880SOL     OW12231   6.063   0.026   1.705 -0.2630 -0.2575 -0.4215
 3880SOL    HW112232   6.116   0.101   1.677  0.2207 -0.1393  0.7580
 3880SOL    HW212233   6.005   0.062   1.772 -0.4910 -0.8078 -0.3187
 3881SOL     OW12234   1.561   3.017   2.530  0.3086 -0.5727 -0.0499
 3881SOL    HW112235   1.647   3.052   2.552  0.2033 -0.0766 -0.4304
 3881SOL    HW212236   1.554   2.937   2.583  1.4443 -1.2090 -0.8227
 3882SOL     OW12237   3.727   2.214   2.719 -0.2307 -0.0590  0.3022
 3882SOL    HW112238   3.813   2.244   2.750 -0.2991  0.1861  0.2516
 3882SOL    HW212239   3.723   2.243   2.628 -0.0199 -0.8014  0.0495
 3883SOL     OW12240   1.418   0.639   2.384  0.5336 -0.4527  0.8770
 3883SOL    HW112241   1.439   0.552   2.349  0.9927 -0.5949  1.4915
 3883SOL    HW212242   1.495   0.663   2.436 -0.1434 -0.2692  1.8152
 3884SOL     OW12243   5.372   0.857   2.391  0.3773  0.7276  0.0825
 3884SOL    HW112244   5.340   0.790   2.331 -1.5675 -1.6916  3.4569
 3884SOL    HW212245   5.451   0.891   2.350  0.7232 -2.6909 -2.4888
 3885SOL     OW12246   1.528   0.142   0.315  0.0804 -0.1327 -0.4610
 3885SOL    HW112247   1.436   0.121   0.327  0.2478 -0.1408  1.0785
 3885SOL    HW212248   1.573   0.058   0.325  0.2693 -0.0999 -1.0183
 3886SOL     OW12249   4.222   4.037   0.172 -0.1280 -0.1625 -0.1638
 3886SOL    HW112250   4.285   3.969   0.149 -1.8339 -1.4549 -1.1998
 3886SOL    HW212251   4.208   4.086   0.091 -0.7958 -0.1734 -0.0608
 3887SOL     OW12252   1.141   3.797   3.228  0.1450  0.0257 -0.7562
 3887SOL    HW112253   1.078   3.777   3.297  0.5294  2.2332  0.3341
 3887SOL    HW212254   1.222   3.754   3.255  0.2832  0.8527  0.1884
 3888SOL     OW12255   1.476   1.824   3.065  0.2240  0.1429  0.0471
 3888SOL    HW112256   1.403   1.822   3.004  0.9400 -1.6265 -0.8440
 3888SOL    HW212257   1.553   1.841   3.011  1.1741 -3.6209 -0.0731
 3889SOL     OW12258   2.279   3.957   2.579 -0.7778 -0.0821  0.4994
 3889SOL    HW112259   2.287   3.874   2.627  1.3037 -0.0511  0.2764
 3889SOL    HW212260   2.188   3.958   2.549 -0.6975 -2.6020 -0.0543
 3890SOL     OW12261   6.394   3.690   1.541 -0.4202  0.1905  0.6316
 3890SOL    HW112262   6.470   3.736   1.505 -1.4102  1.5464  0.1818
 3890SOL    HW212263   6.404   3.600   1.510  0.8927  0.3697  0.4402
 3891SOL     OW12264   7.071   4.787   0.137 -0.6303 -0.4702 -0.5645
 3891SOL    HW112265   6.990   4.736   0.135 -1.6459  1.0805 -1.3636
 3891SOL    HW212266   7.069   4.832   0.221 -0.1959 -1.0235 -0.2526
 3892SOL     OW12267   2.640   3.247   1.581  0.4696 -0.4153 -0.4060
 3892SOL    HW112268   2.666   3.332   1.545 -0.6493  0.2637  0.3258
 3892SOL    HW212269   2.552   3.232   1.546  0.7054 -1.3436 -0.6329
 3893SOL     OW12270   0.917   1.409   2.311 -0.1693 -0.1708  0.2101
 3893SOL    HW112271   1.010   1.393   2.328 -0.2057  1.6543  2.7665
 3893SOL    HW212272   0.890   1.337   2.255  3.0341 -0.1032 -1.6891
 3894SOL     OW12273   2.527   3.256   0.222  0.9387  0.1543 -0.1436
 3894SOL    HW112274   2.438   3.282   0.246  0.6946  0.1266 -0.9693
 3894SOL    HW212275   2.578   3.270   0.301 -0.1391 -1.5526  0.9232
 3895SOL     OW12276   5.462   0.255   1.929 -0.0947  0.4244  0.4877
 3895SOL    HW112277   5.422   0.183   1.978 -2.8952 -0.0023 -2.1240
 3895SOL    HW212278   5.400   0.327   1.938 -0.0588  0.7194 -1.3174
 3896SOL     OW12279   0.482   3.654   1.120  0.0774 -0.9886  0.2173
 3896SOL    HW112280   0.549   3.622   1.059 -0.3458 -1.0797 -0.2081
 3896SOL    HW212281   0.399   3.630   1.079 -0.3022  1.3416 -0.5373
 3897SOL     OW12282   6.009   4.503   2.189 -0.2085 -0.5332 -0.5728
 3897SOL    HW112283   6.027   4.427   2.244 -2.5628 -0.3786  0.5155
 3897SOL    HW212284   6.036   4.578   2.241  2.0429 -0.5480 -1.6165
 3898SOL     OW12285   1.084   3.403   2.555  0.4232 -0.3636 -0.0653
 3898SOL    HW112286   1.110   3.364   2.471  2.4841 -2.7510  1.5165
 3898SOL    HW212287   0.990   3.415   2.548  0.3723 -1.5059 -2.3323
 3899SOL     OW12288   1.850   1.851   0.797 -0.2256 -0.1450  0.1053
 3899SOL    HW112289   1.789   1.785   0.765  1.3377 -1.1190 -1.0830
 3899SOL    HW212290   1.871   1.824   0.886  0.0124 -0.9857 -0.1975
 3900SOL     OW12291   4.391   4.379   2.384 -0.4269  0.0931  0.4484
 3900SOL    HW112292   4.332   4.308   2.410 -0.5818  0.2162  0.4348
 3900SOL    HW212293   4.445   4.341   2.315 -1.4941  0.4224 -0.5950
 3901SOL     OW12294   2.749   4.293   0.750 -0.3372  0.0935 -0.2749
 3901SOL    HW112295   2.748   4.364   0.686  0.7442  0.0273 -0.3702
 3901SOL    HW212296   2.834   4.299   0.792 -0.4805 -0.7566  0.1662
 3902SOL     OW12297   4.756   1.654   1.313  0.4564 -0.5354 -0.8668
 3902SOL    HW112298   4.785   1.625   1.226  2.7698  0.5122 -0.5201
 3902SOL    HW212299   4.762   1.750   1.309  0.3631 -0.4612  0.3694
 3903SOL     OW12300   0.587   0.957   2.262  0.2239  0.4504 -0.5021
 3903SOL    HW112301   0.506   0.923   2.223  0.9205 -1.9772 -0.0048
 3903SOL    HW212302   0.657   0.913   2.213  1.3060  2.4704 -0.8926
 3904SOL     OW12303   4.940   4.121   3.413  0.3210  0.0137 -0.4441
 3904SOL    HW112304   4.933   4.069   3.494 -0.6945 -1.4837 -1.4430
 3904SOL    HW212305   4.915   4.060   3.343 -1.7663  2.0336 -1.6130
 3905SOL     OW12306   5.424   3.644   2.754  0.2100 -0.1912  0.5691
 3905SOL    HW112307   5.342   3.662   2.707  0.8148 -2.5423 -1.6047
 3905SOL    HW212308   5.478   3.598   2.691  1.9771 -1.6141  2.9601
 3906SOL     OW12309   3.648   3.604   3.372 -0.0917 -0.4837  0.8552
 3906SOL    HW112310   3.731   3.645   3.396 -0.1296  0.1566 -0.0751
 3906SOL    HW212311   3.597   3.674   3.332 -0.1147 -1.4457 -0.8893
 3907SOL     OW12312   4.084   2.125   1.025  0.1716  0.1507  0.2320
 3907SOL    HW112313   4.107   2.039   0.990  1.0008 -0.3453  1.9067
 3907SOL    HW212314   4.029   2.165   0.957  1.8015 -0.6935 -1.6647
 3908SOL     OW12315   6.650   0.218   1.580 -0.1456  0.1788  0.2254
 3908SOL    HW112316   6.700   0.179   1.509 -0.3009  0.8185 -0.2470
 3908SOL    HW212317   6.596   0.146   1.614  1.1078 -0.5271  0.7728
 3909SOL     OW12318   2.955   3.822   3.279 -0.1528  0.0710 -0.3666
 3909SOL    HW112319   2.905   3.891   3.235 -0.3233 -0.7398 -1.5021
 3909SOL    HW212320   3.006   3.868   3.345 -3.0682  0.8434  1.5273
 3910SOL     OW12321   1.433   1.828   0.436  0.0201  0.4342 -0.5539
 3910SOL    HW112322   1.351   1.778   0.436 -0.1376  0.6683  0.6940
 3910SOL    HW212323   1.500   1.761   0.448 -0.2969  0.5769  2.9083
 3911SOL     OW12324   2.426   1.547   0.539 -0.0866 -0.0691 -0.1507
 3911SOL    HW112325   2.446   1.477   0.476 -1.6437  0.1323 -0.9060
 3911SOL    HW212326   2.415   1.501   0.623  0.5507 -0.5151 -0.3028
 3912SOL     OW12327   2.874   1.492   0.379  0.6486  0.2611 -0.2213
 3912SOL    HW112328   2.821   1.412   0.380 -0.0811  0.7195  1.1099
 3912SOL    HW212329   2.859   1.531   0.465  2.3398  0.9653 -0.2106
 3913SOL     OW12330   0.714   0.457   1.577 -0.1996 -0.2634 -0.4168
 3913SOL    HW112331   0.807   0.472   1.591 -0.2278 -0.0056 -0.4975
 3913SOL    HW212332   0.671   0.520   1.634 -0.3163  0.5828 -1.4088
 3914SOL     OW12333   0.908   5.189   1.370  0.5929 -0.3517 -0.2376
 3914SOL    HW112334   0.828   5.154   1.410  0.1953  0.4934 -0.2743
 3914SOL    HW212335   0.894   5.179   1.275  1.1355 -1.4884 -0.2125
 3915SOL     OW12336   0.496   1.385   0.250  0.2878 -0.2905 -0.2282
 3915SOL    HW112337   0.406   1.367   0.280 -0.3141  1.3456 -0.9715
 3915SOL    HW212338   0.546   1.395   0.331 -0.4559  0.0169  0.2104
 3916SOL     OW12339   6.619   0.974   1.284  0.4027 -0.5406 -0.2045
 3916SOL    HW112340   6.562   1.036   1.329 -0.0099 -0.0402 -1.3906
 3916SOL    HW212341   6.694   0.965   1.343  0.4765  1.0859  0.0122
 3917SOL     OW12342   0.617   2.914   2.319  0.0077 -0.2194  0.1795
 3917SOL    HW112343   0.663   2.914   2.403  0.5600 -0.2968 -0.1230
 3917SOL    HW212344   0.649   2.836   2.273 -2.8845 -2.2700  1.2956
 3918SOL     OW12345   1.376   1.271   2.472  0.1514 -0.3835 -1.0056
 3918SOL    HW112346   1.467   1.298   2.457  0.3097 -1.5985 -2.4708
 3918SOL    HW212347   1.361   1.288   2.565  1.4544  1.0406 -1.0273
 3919SOL     OW12348   1.133   2.155   2.729 -0.1901  0.3190  0.2642
 3919SOL    HW112349   1.193   2.179   2.800 -0.6380  0.7874  0.4891
 3919SOL    HW212350   1.057   2.117   2.774 -0.0190 -0.3825 -0.0235
 3920SOL     OW12351   3.656   4.326   1.417  0.1848 -0.3468  0.4363
 3920SOL    HW112352   3.646   4.351   1.509 -0.0391 -0.5183  0.4608
 3920SOL    HW212353   3.641   4.231   1.417  0.0761 -0.3290  0.2046
 3921SOL     OW12354   0.670   0.181   1.573  0.6743 -0.0561  0.1471
 3921SOL    HW112355   0.669   0.277   1.567 -0.4456 -0.0643  0.1063
 3921SOL    HW212356   0.713   0.163   1.656  0.3359  0.5008  0.4510
 3922SOL     OW12357   4.436   3.674   2.390 -0.4091  0.1391 -0.4522
 3922SOL    HW112358   4.472   3.587   2.409  1.0081  1.0561  1.2886
 3922SOL    HW212359   4.372   3.689   2.460 -0.4724  0.6040 -0.6065
 3923SOL     OW12360   6.282   0.537   0.961  0.3153  0.4263  0.0780
 3923SOL    HW112361   6.212   0.567   1.019 -0.6851  1.1285 -1.4315
 3923SOL    HW212362   6.360   0.536   1.017 -0.0856  3.5341  0.8871
 3924SOL     OW12363   3.494   3.397   1.136 -0.0918 -0.3269  0.9352
 3924SOL    HW112364   3.468   3.404   1.044  1.8446  2.0516  0.4615
 3924SOL    HW212365   3.430   3.337   1.174 -1.9834 -0.0970 -1.5712
 3925SOL     OW12366   2.422   2.546   2.551 -0.4680  0.0732 -0.0840
 3925SOL    HW112367   2.457   2.573   2.466 -1.0394  0.0528 -0.3288
 3925SOL    HW212368   2.499   2.543   2.609 -0.3321  1.9146 -0.1155
 3926SOL     OW12369   1.185   4.863   2.982  0.6834 -0.3765 -0.3385
 3926SOL    HW112370   1.188   4.931   3.049 -2.2237 -2.4955  2.2797
 3926SOL    HW212371   1.128   4.899   2.914 -0.6236  0.0054  0.8946
 3927SOL     OW12372   1.757   0.806   0.130 -0.5970  0.2239  0.2588
 3927SOL    HW112373   1.761   0.899   0.152  1.1754  0.2211  0.0935
 3927SOL    HW212374   1.767   0.804   0.035  1.2850 -0.2053  0.4429
 3928SOL     OW12375   3.977   3.361   3.077 -0.1875 -0.0525  0.6562
 3928SOL    HW112376   3.896   3.406   3.052  0.0260  0.2090  0.4412
 3928SOL    HW212377   4.002   3.403   3.160 -0.2510 -0.1101  0.7052
 3929SOL     OW12378   6.752   1.754   1.023  0.4066  0.1506 -0.2237
 3929SOL    HW112379   6.794   1.729   1.105  1.4728 -0.8210 -1.0479
 3929SOL    HW212380   6.666   1.711   1.027 -0.4612  1.8739  1.3129
 3930SOL     OW12381   6.897   5.096   0.504  0.2416  0.4014  0.3560
 3930SOL    HW112382   6.882   5.174   0.557  1.2215  2.4291 -2.1094
 3930SOL    HW212383   6.813   5.081   0.460 -0.9255 -1.9537  3.0612
 3931SOL     OW12384   1.280   2.362   2.076 -0.0121 -0.2888 -0.1636
 3931SOL    HW112385   1.272   2.454   2.103 -0.3901 -0.5238  0.5442
 3931SOL    HW212386   1.217   2.315   2.131  1.2898 -1.2022  0.6153
 3932SOL     OW12387   5.980   1.512   1.337 -0.1055 -0.0886 -0.4227
 3932SOL    HW112388   5.946   1.439   1.285 -0.7908  0.1629 -0.3304
 3932SOL    HW212389   5.965   1.589   1.283 -1.9668  0.3451  0.6271
 3933SOL     OW12390   0.595   1.331   3.011 -0.3697  0.2735 -0.1264
 3933SOL    HW112391   0.601   1.361   3.102 -0.1915  0.0221 -0.0517
 3933SOL    HW212392   0.686   1.333   2.980 -0.3282 -0.3526 -0.0621
 3934SOL     OW12393   5.173   4.424   2.460  0.7445 -0.5339 -0.3096
 3934SOL    HW112394   5.124   4.342   2.460  0.8882 -0.6249 -0.7570
 3934SOL    HW212395   5.241   4.412   2.393 -0.9166  0.9132 -2.4030
 3935SOL     OW12396   3.951   1.160   0.934 -0.7575 -0.0710  0.2892
 3935SOL    HW112397   3.876   1.147   0.992 -0.5584  0.9546  0.8030
 3935SOL    HW212398   3.973   1.072   0.902 -1.8856 -0.4407  0.4872
 3936SOL     OW12399   0.458   2.634   0.472 -0.0382  0.1834  0.3599
 3936SOL    HW112400   0.443   2.551   0.426  0.9163  0.6387 -0.8646
 3936SOL    HW212401   0.374   2.657   0.509 -0.3845 -1.2027  0.5053
 3937SOL     OW12402   6.685   1.634   2.849  0.4000 -0.3318  0.4446
 3937SOL    HW112403   6.760   1.694   2.855  1.9498 -1.7617 -2.3097
 3937SOL    HW212404   6.626   1.676   2.786 -0.2653 -0.0461  1.2491
 3938SOL     OW12405   1.349   4.951   2.039  0.0316 -0.1435  0.3023
 3938SOL    HW112406   1.389   4.983   2.120 -1.4237  2.3481  0.1405
 3938SOL    HW212407   1.303   4.870   2.065  0.9251 -0.2742  1.5627
 3939SOL     OW12408   2.242   2.897   1.749  0.2144  0.1093 -0.0405
 3939SOL    HW112409   2.205   2.819   1.789  2.2275 -1.0639 -0.3387
 3939SOL    HW212410   2.233   2.882   1.655  0.5343  0.2720 -0.0979
 3940SOL     OW12411   5.890   3.657   2.121  0.0446  0.1206 -0.2235
 3940SOL    HW112412   5.868   3.749   2.139 -0.0248  0.0419  0.0906
 3940SOL    HW212413   5.812   3.623   2.077  0.4467  0.4781 -1.2688
 3941SOL     OW12414   4.401   5.309   0.642 -0.0546 -0.1259  0.3352
 3941SOL    HW112415   4.349   5.389   0.637  0.8001  0.6191  2.2095
 3941SOL    HW212416   4.404   5.276   0.553 -3.2923  0.0389  0.0522
 3942SOL     OW12417   3.139   1.231   0.463 -0.1792 -0.0726 -0.7810
 3942SOL    HW112418   3.167   1.319   0.486  1.6773 -0.3349 -1.8423
 3942SOL    HW212419   3.187   1.174   0.523  0.0587 -0.4464 -1.3206
 3943SOL     OW12420   7.141   0.183   1.016  0.2307  0.2464 -0.3945
 3943SOL    HW112421   7.234   0.202   1.002  0.5421 -0.4337  0.6318
 3943SOL    HW212422   7.121   0.224   1.100  0.2737 -1.6892  0.6265
 3944SOL     OW12423   1.267   5.345   0.974 -0.0611 -0.1445  0.8301
 3944SOL    HW112424   1.178   5.362   0.943 -0.5100 -1.6165  1.2553
 3944SOL    HW212425   1.257   5.333   1.068  0.4515 -1.1971  0.7583
 3945SOL     OW12426   6.504   2.232   0.111 -0.2488 -0.2870 -0.5934
 3945SOL    HW112427   6.583   2.278   0.140  0.0465 -0.5974 -0.8922
 3945SOL    HW212428   6.466   2.288   0.044 -0.4345 -0.0040 -0.2533
 3946SOL     OW12429   1.289   2.161   3.251 -0.2312 -0.2596  0.1935
 3946SOL    HW112430   1.264   2.159   3.343  0.2192  0.5597  0.3433
 3946SOL    HW212431   1.367   2.217   3.249  0.0790 -0.7022 -0.6120
 3947SOL     OW12432   3.980   0.442   0.188 -0.4677  0.6728  0.5922
 3947SOL    HW112433   4.008   0.383   0.118 -1.9109  1.4512 -0.7221
 3947SOL    HW212434   4.021   0.407   0.267  3.6846  1.4080 -0.9848
 3948SOL     OW12435   6.655   2.822   0.055  0.4675 -0.0553  0.8099
 3948SOL    HW112436   6.651   2.795   0.146  1.0868 -2.3842  0.2018
 3948SOL    HW212437   6.715   2.760   0.014  0.4485  1.1264 -1.1324
 3949SOL     OW12438   4.866   4.173   1.326 -0.4335  0.1770 -0.0149
 3949SOL    HW112439   4.844   4.226   1.250  0.5030  0.8102  0.1305
 3949SOL    HW212440   4.897   4.237   1.391  0.1590 -0.4917  0.3737
 3950SOL     OW12441   4.154   5.153   2.220 -0.6065 -0.5355 -0.2462
 3950SOL    HW112442   4.237   5.201   2.224 -0.8285 -0.2050  2.2909
 3950SOL    HW212443   4.180   5.061   2.222 -0.2592 -0.4363  0.5536
 3951SOL     OW12444   4.249   0.017   3.201 -0.1842 -0.1474  0.1936
 3951SOL    HW112445   4.214  -0.034   3.274 -0.0451  0.5158  0.7351
 3951SOL    HW212446   4.229   0.107   3.223 -0.0226  0.0724 -0.5324
 3952SOL     OW12447   2.555   1.729   1.640 -0.5974  0.3847 -0.1265
 3952SOL    HW112448   2.636   1.778   1.655 -0.6534  0.9406 -1.4899
 3952SOL    HW212449   2.583   1.643   1.610 -0.5127  0.4617 -0.2656
 3953SOL     OW12450   0.725   3.349   0.137 -0.2712 -0.1698 -0.4094
 3953SOL    HW112451   0.761   3.317   0.054  1.5691  0.8083 -0.0419
 3953SOL    HW212452   0.676   3.427   0.113 -0.5169 -0.4035 -0.6789
 3954SOL     OW12453   5.672   0.774   2.565  0.2823  0.0011  0.2902
 3954SOL    HW112454   5.749   0.719   2.552 -0.7703 -1.7797  1.3047
 3954SOL    HW212455   5.663   0.782   2.660 -1.1583 -0.4258  0.2197
 3955SOL     OW12456   0.827   1.254   1.586  0.7763  0.2395  0.5759
 3955SOL    HW112457   0.776   1.335   1.587  1.3809  0.6254  0.9493
 3955SOL    HW212458   0.854   1.242   1.678  1.0741 -0.1292  0.4426
 3956SOL     OW12459   5.418   5.019   3.345  0.5369  0.1475  0.3368
 3956SOL    HW112460   5.361   5.095   3.338  0.2649 -0.0138  0.7654
 3956SOL    HW212461   5.372   4.949   3.298 -0.1728 -0.2937  1.6572
 3957SOL     OW12462   2.967   4.284   3.091 -0.0833  0.2207  0.5263
 3957SOL    HW112463   3.007   4.327   3.015 -2.4901  0.5687 -0.6254
 3957SOL    HW212464   2.968   4.351   3.160  2.4186 -0.2061  0.9975
 3958SOL     OW12465   5.868   0.875   0.844 -0.8722  0.2017  0.5727
 3958SOL    HW112466   5.866   0.789   0.801 -1.2427 -1.1070  3.0407
 3958SOL    HW212467   5.946   0.917   0.808  0.2714 -1.8477  0.4408
 3959SOL     OW12468   4.234   5.140   1.671 -0.0583 -0.2001  0.3553
 3959SOL    HW112469   4.168   5.209   1.662  0.5315  0.4962  1.1835
 3959SOL    HW212470   4.185   5.058   1.659 -0.9486  0.3292  0.2964
 3960SOL     OW12471   4.444   2.031   2.062  0.1538 -0.5327  0.5869
 3960SOL    HW112472   4.383   2.063   1.995 -0.1716 -1.5596  0.3716
 3960SOL    HW212473   4.521   2.087   2.053 -0.5119  0.3995  0.4584
 3961SOL     OW12474   0.503   3.299   1.408 -0.3499  0.1720  0.5324
 3961SOL    HW112475   0.518   3.390   1.435 -0.3409 -0.1451  1.6585
 3961SOL    HW212476   0.535   3.247   1.482 -2.6289 -0.6624  1.0349
 3962SOL     OW12477   2.353   1.829   1.771  0.1903 -0.4757  0.2147
 3962SOL    HW112478   2.308   1.745   1.787 -1.5614  0.2985 -0.3570
 3962SOL    HW212479   2.422   1.807   1.708 -0.7417 -1.3865 -0.5323
 3963SOL     OW12480   7.011   2.126   3.472 -0.2157  0.4583 -0.0619
 3963SOL    HW112481   6.962   2.076   3.538 -0.9464  2.3024  0.8641
 3963SOL    HW212482   7.090   2.154   3.517 -0.1784  0.7770 -0.3215
 3964SOL     OW12483   0.200   1.582   2.618 -0.6865 -0.2795 -0.0803
 3964SOL    HW112484   0.255   1.504   2.624 -0.9466 -0.3841  1.1998
 3964SOL    HW212485   0.115   1.555   2.651 -1.2607  0.1179 -1.2047
 3965SOL     OW12486   1.096   5.196   0.245 -0.0487  0.2264  0.2991
 3965SOL    HW112487   1.044   5.251   0.303  0.0858  0.7009 -0.0179
 3965SOL    HW212488   1.185   5.200   0.280 -0.0095  0.3376  0.1899
 3966SOL     OW12489   3.752   1.962   0.671 -0.0691 -0.6212 -0.3306
 3966SOL    HW112490   3.666   2.004   0.665  0.2468  0.2969  1.0130
 3966SOL    HW212491   3.792   1.976   0.586 -0.4823  0.7283 -0.3232
 3967SOL     OW12492   1.212   4.016   3.090  0.2871  0.0679 -0.4346
 3967SOL    HW112493   1.188   3.942   3.146  0.9905  0.1945  0.0451
 3967SOL    HW212494   1.255   4.078   3.149 -1.1949  1.3266 -0.6332
 3968SOL     OW12495   4.518   0.575   2.691 -0.0047  0.6562 -0.5208
 3968SOL    HW112496   4.558   0.489   2.679 -1.0252 -0.0491  0.8548
 3968SOL    HW212497   4.491   0.601   2.603 -0.5082 -0.8631 -0.8526
 3969SOL     OW12498   5.093   5.135   3.149 -0.0014  0.2429  0.0993
 3969SOL    HW112499   5.076   5.092   3.065 -0.9193 -0.5382  0.6595
 3969SOL    HW212500   5.006   5.163   3.179 -0.0461 -1.4900  1.8214
 3970SOL     OW12501   3.494   0.742   3.117  0.1399  0.1731  0.3080
 3970SOL    HW112502   3.550   0.767   3.043  0.8109 -1.9230  0.0471
 3970SOL    HW212503   3.413   0.712   3.077 -0.3139  1.0114  0.5689
 3971SOL     OW12504   3.806   0.983   3.339  0.1669  0.2812 -0.6571
 3971SOL    HW112505   3.745   1.057   3.346 -0.5430 -0.2797 -0.7780
 3971SOL    HW212506   3.859   0.987   3.418  0.2881  1.0501 -0.7709
 3972SOL     OW12507   5.973   2.343   2.236  0.4270  0.2648 -0.2896
 3972SOL    HW112508   5.983   2.431   2.200 -0.7169  0.2393 -0.6964
 3972SOL    HW212509   5.932   2.293   2.165  0.8976 -0.5553  0.0033
 3973SOL     OW12510   5.359   1.298   0.692  0.6712  0.0827  0.2503
 3973SOL    HW112511   5.452   1.309   0.669  0.9146 -1.2178  0.5569
 3973SOL    HW212512   5.312   1.348   0.625  1.6365  2.3201  1.1279
 3974SOL     OW12513   2.648   3.642   0.456  0.0449  0.2968  0.0746
 3974SOL    HW112514   2.601   3.633   0.539 -0.7828  0.4156 -0.3778
 3974SOL    HW212515   2.726   3.587   0.467 -0.1818  0.1216  0.8419
 3975SOL     OW12516   7.130   5.009   2.272 -0.3527  0.6570  0.5919
 3975SOL    HW112517   7.070   5.023   2.199 -1.6569 -3.8602  0.5070
 3975SOL    HW212518   7.210   4.974   2.232  0.6712  2.2903  1.0955
 3976SOL     OW12519   2.131   3.955   3.428  0.6565 -0.4266  0.2306
 3976SOL    HW112520   2.146   3.972   3.521  1.1071 -1.0471  0.2789
 3976SOL    HW212521   2.208   3.906   3.400  1.3065  1.1299 -0.8592
 3977SOL     OW12522   4.482   4.391   0.352  0.6211  0.3881 -0.7442
 3977SOL    HW112523   4.429   4.311   0.348 -0.7097  1.2719 -1.5009
 3977SOL    HW212524   4.568   4.362   0.383 -0.7457 -0.8714  2.2209
 3978SOL     OW12525   3.649   2.984   0.497 -0.0820  0.1663 -0.1914
 3978SOL    HW112526   3.584   3.036   0.544  0.1282  0.3779 -0.1307
 3978SOL    HW212527   3.599   2.911   0.459 -0.1832 -0.2213  0.6809
 3979SOL     OW12528   2.630   0.217   0.708 -0.0950 -0.0736  0.0090
 3979SOL    HW112529   2.713   0.239   0.665 -0.1531  2.1435  0.8894
 3979SOL    HW212530   2.563   0.236   0.642 -0.0056  0.0209 -0.0553
 3980SOL     OW12531   5.350   5.013   2.072  0.1741 -0.7010  0.2903
 3980SOL    HW112532   5.433   4.979   2.106  1.8121  2.6082 -0.0282
 3980SOL    HW212533   5.337   4.965   1.990  2.7810 -0.1177 -0.5829
 3981SOL     OW12534   3.860   2.567   1.324 -0.4255 -0.3439 -0.0488
 3981SOL    HW112535   3.939   2.620   1.312 -0.1375 -0.5184  0.9941
 3981SOL    HW212536   3.878   2.487   1.275 -0.3326 -0.0239 -0.5524
 3982SOL     OW12537   3.574   2.812   0.753  0.3494 -0.2672 -0.6723
 3982SOL    HW112538   3.661   2.793   0.717  0.5117 -0.4480 -0.2027
 3982SOL    HW212539   3.577   2.774   0.841  0.1587  0.6522 -0.2575
 3983SOL     OW12540   4.993   2.225   1.668 -0.4114 -0.0050  0.0158
 3983SOL    HW112541   5.086   2.246   1.675 -0.0310 -0.9913 -1.4970
 3983SOL    HW212542   4.968   2.255   1.580 -1.0114 -1.4593 -0.3491
 3984SOL     OW12543   5.406   1.295   2.016 -0.5681 -0.1548 -0.2512
 3984SOL    HW112544   5.408   1.237   2.093 -2.0800 -0.3445 -0.3299
 3984SOL    HW212545   5.413   1.383   2.052 -0.5446 -0.2789  0.0539
 3985SOL     OW12546   0.985   2.594   1.475  0.2782  0.2441  0.3160
 3985SOL    HW112547   0.997   2.540   1.397  0.9421  1.9290 -0.8080
 3985SOL    HW212548   0.999   2.534   1.549 -0.2333 -1.3509 -0.8404
 3986SOL     OW12549   2.565   2.282   1.460 -0.9186 -0.4803 -0.0130
 3986SOL    HW112550   2.577   2.188   1.443  0.0427 -0.0567 -2.1223
 3986SOL    HW212551   2.508   2.311   1.389 -0.3154  0.7082 -0.0319
 3987SOL     OW12552   2.491   0.335   0.008  0.0564  0.1212  0.1144
 3987SOL    HW112553   2.521   0.254  -0.033  0.0495 -0.6490  1.5526
 3987SOL    HW212554   2.566   0.395   0.001  0.8420 -0.7369  0.9084
 3988SOL     OW12555   0.644   3.196   2.264  0.1995  0.1887  0.2095
 3988SOL    HW112556   0.660   3.102   2.262 -1.1744 -0.0674  0.6652
 3988SOL    HW212557   0.622   3.215   2.355 -2.0776  0.4796 -0.3473
 3989SOL     OW12558   2.837   3.441   0.534  0.0523 -0.1634 -0.8412
 3989SOL    HW112559   2.891   3.518   0.550 -0.0782  0.1600 -1.8817
 3989SOL    HW212560   2.820   3.405   0.621 -0.5235  1.4285 -0.2533
 3990SOL     OW12561   0.099   0.405   1.954  0.0761 -0.3731 -0.0945
 3990SOL    HW112562   0.186   0.392   1.992  0.6023  0.4290 -1.0035
 3990SOL    HW212563   0.079   0.321   1.912  0.2022 -0.7174  0.5272
 3991SOL     OW12564   1.603   3.642   0.506  0.3496 -0.3467  0.3399
 3991SOL    HW112565   1.625   3.665   0.415 -0.8275 -0.3527  0.0413
 3991SOL    HW212566   1.660   3.568   0.526  2.8823  1.5714  0.6898
 3992SOL     OW12567   4.810   4.271   1.047 -0.0760  0.5577 -0.7815
 3992SOL    HW112568   4.760   4.328   1.105  0.5170 -1.2964  1.7193
 3992SOL    HW212569   4.745   4.238   0.985 -1.2340  0.9404  0.1815
 3993SOL     OW12570   1.061   5.052   1.606 -0.2280  0.1264  0.1064
 3993SOL    HW112571   0.986   5.065   1.549  1.2288  1.0309 -1.7037
 3993SOL    HW212572   1.038   5.098   1.687 -1.6661  0.2353 -0.3414
 3994SOL     OW12573   6.512   5.244   1.867  0.1180 -0.3222  0.1737
 3994SOL    HW112574   6.585   5.237   1.805 -0.6735  0.3627 -0.8699
 3994SOL    HW212575   6.442   5.191   1.828 -1.1320  1.8202 -0.6798
 3995SOL     OW12576   1.870   1.942   1.989  0.0001  0.5811  0.4943
 3995SOL    HW112577   1.801   1.989   1.941 -0.6179 -0.8581 -0.0790
 3995SOL    HW212578   1.834   1.932   2.077 -0.0157  0.8745  0.5229
 3996SOL     OW12579   6.612   3.963   2.164  0.8001 -0.2204  0.0381
 3996SOL    HW112580   6.560   4.035   2.201  2.7688  1.9783 -1.2297
 3996SOL    HW212581   6.613   3.981   2.070  1.5025 -1.8368 -0.2823
 3997SOL     OW12582   3.251   2.220   0.041  0.8245 -0.0124 -0.9771
 3997SOL    HW112583   3.267   2.263  -0.043 -2.4963  0.6365 -1.4244
 3997SOL    HW212584   3.179   2.160   0.024  0.1381  0.0602  1.3727
 3998SOL     OW12585   0.567   0.277   1.838 -0.5465 -0.2885  0.4274
 3998SOL    HW112586   0.529   0.329   1.767 -2.0697 -0.0085  1.4020
 3998SOL    HW212587   0.643   0.327   1.867  0.0885 -0.3963 -0.9637
 3999SOL     OW12588   3.624   1.193   1.782 -1.4344 -0.1195 -0.0594
 3999SOL    HW112589   3.631   1.110   1.829  0.2376  0.6631  1.1598
 3999SOL    HW212590   3.625   1.168   1.689  1.9459 -1.4038  0.1801
 4000SOL     OW12591   1.384   4.344   2.488 -0.6512 -0.0764 -0.1565
 4000SOL    HW112592   1.395   4.249   2.484 -0.7647 -0.1361  0.6740
 4000SOL    HW212593   1.465   4.380   2.452 -1.0504 -0.4763 -1.5070
 4001SOL     OW12594   1.312   3.400   2.734  0.0402  0.2801  0.4966
 4001SOL    HW112595   1.337   3.340   2.664  0.6699  1.5424 -0.3872
 4001SOL    HW212596   1.216   3.405   2.728  0.1646  1.4370 -1.2151
 4002SOL     OW12597   4.234   1.181   2.407  0.1870 -0.0306  0.3213
 4002SOL    HW112598   4.311   1.224   2.446 -0.2827 -0.5872  1.9468
 4002SOL    HW212599   4.164   1.244   2.417 -0.0361 -0.3487  0.8093
 4003SOL     OW12600   3.334   2.906   2.340 -0.3466 -0.7496  0.9062
 4003SOL    HW112601   3.314   2.949   2.257 -0.9468 -0.6287  1.1028
 4003SOL    HW212602   3.257   2.851   2.358  0.2885 -1.6896  0.8034
 4004SOL     OW12603   7.093   3.347   0.014  0.5175  0.0326  0.1333
 4004SOL    HW112604   7.042   3.287  -0.041  3.8539 -0.7195 -2.4379
 4004SOL    HW212605   7.099   3.302   0.098 -1.8393 -0.4125  0.1543
 4005SOL     OW12606   5.014   4.623   2.637  0.1579  0.2206 -0.1617
 4005SOL    HW112607   4.963   4.556   2.683 -1.0437  1.0083 -0.2935
 4005SOL    HW212608   5.092   4.576   2.606 -1.3045 -1.5117 -1.4974
 4006SOL     OW12609   3.533   5.058   2.900 -0.8222  0.3040  0.4349
 4006SOL    HW112610   3.588   5.024   2.970  0.6241  1.1541 -0.2330
 4006SOL    HW212611   3.594   5.106   2.843 -2.1414  0.6389 -0.7538
 4007SOL     OW12612   2.108   2.564   1.356  0.6953  0.6695 -0.9288
 4007SOL    HW112613   2.029   2.522   1.390  1.9188 -2.7962 -1.9341
 4007SOL    HW212614   2.118   2.642   1.410 -2.9900  0.9126 -0.3172
 4008SOL     OW12615   5.080   3.945   2.303  0.7227  0.0636 -0.0905
 4008SOL    HW112616   5.038   3.870   2.261  0.9430 -0.0325 -0.1432
 4008SOL    HW212617   5.169   3.946   2.267  0.3184  1.1658 -1.1558
 4009SOL     OW12618   3.934   2.385   2.786  0.1890 -0.0209 -0.0815
 4009SOL    HW112619   3.913   2.465   2.738 -0.0294  0.6331  1.0955
 4009SOL    HW212620   4.029   2.388   2.799 -0.1370  1.6049  2.6016
 4010SOL     OW12621   2.345   0.888   1.083 -0.3738  0.2657  0.5959
 4010SOL    HW112622   2.269   0.924   1.130 -1.7994  0.3472 -1.6138
 4010SOL    HW212623   2.323   0.795   1.071  0.0429  0.2139  0.2276
 4011SOL     OW12624   0.647   0.500   2.994  0.5089 -0.1328  0.3754
 4011SOL    HW112625   0.621   0.500   3.086  1.0072 -0.8583  0.5223
 4011SOL    HW212626   0.619   0.414   2.961  0.4461  0.0737 -0.1176
 4012SOL     OW12627   1.157   3.245   0.280 -0.1361  0.5346 -0.2798
 4012SOL    HW112628   1.168   3.221   0.372 -0.2460 -0.6553 -0.5522
 4012SOL    HW212629   1.181   3.165   0.232 -1.2111  0.7481 -1.2240
 4013SOL     OW12630   3.610   0.480   1.311 -0.0313  0.1599  0.6449
 4013SOL    HW112631   3.525   0.440   1.291  0.0302 -0.1962  1.1043
 4013SOL    HW212632   3.674   0.416   1.280  0.1154 -1.6643  4.2683
 4014SOL     OW12633   6.631   1.224   0.736  0.0139 -0.5549 -0.0420
 4014SOL    HW112634   6.655   1.138   0.702  2.8595 -0.9953  2.5983
 4014SOL    HW212635   6.715   1.267   0.755 -1.3367  2.2747  0.0535
 4015SOL     OW12636   4.828   3.720   0.384  0.1534 -0.0721 -0.2501
 4015SOL    HW112637   4.814   3.809   0.418  0.1598  0.7309 -2.2252
 4015SOL    HW212638   4.919   3.720   0.353  0.1118 -0.7355 -0.3843
 4016SOL     OW12639   1.076   3.845   2.808  0.1202 -0.4099  1.3548
 4016SOL    HW112640   1.165   3.844   2.772 -0.6057  1.5534 -0.7579
 4016SOL    HW212641   1.083   3.796   2.890  2.5793 -2.4785  0.0533
 4017SOL     OW12642   0.158   0.619   1.092  0.5339 -0.0680 -0.3403
 4017SOL    HW112643   0.085   0.676   1.064 -0.5846 -1.2960 -0.0381
 4017SOL    HW212644   0.227   0.635   1.027  0.2096  1.5250 -0.3329
 4018SOL     OW12645   0.050   4.452   1.663 -0.2056  0.7922 -0.2175
 4018SOL    HW112646   0.120   4.458   1.599 -1.3161 -0.0546 -1.5775
 4018SOL    HW212647   0.075   4.513   1.732  2.2242 -0.0359 -0.2647
 4019SOL     OW12648   0.243   2.710   1.291 -0.2485  0.2602  0.1065
 4019SOL    HW112649   0.197   2.784   1.252  0.5486  1.7573  1.8915
 4019SOL    HW212650   0.302   2.680   1.222 -3.1074 -1.1484 -1.9363
 4020SOL     OW12651   1.213   4.707   0.869 -0.8896  0.1121  0.2797
 4020SOL    HW112652   1.139   4.689   0.811 -1.7905  0.5679  1.2396
 4020SOL    HW212653   1.270   4.766   0.820 -0.3141 -1.4957 -1.0908
 4021SOL     OW12654   0.084   5.210   3.047  0.1881 -0.2624  0.3187
 4021SOL    HW112655   0.005   5.196   3.099 -1.2521 -0.4116 -1.8252
 4021SOL    HW212656   0.085   5.305   3.031 -0.2031 -0.4037 -0.5962
 4022SOL     OW12657   1.217   2.725   1.662 -0.4011 -0.3911  0.0463
 4022SOL    HW112658   1.195   2.684   1.579  0.8873  1.1493 -1.1311
 4022SOL    HW212659   1.313   2.720   1.667 -0.3044  1.2282  0.4658
 4023SOL     OW12660   6.041   4.083   3.079  0.0177  0.5570 -0.5482
 4023SOL    HW112661   5.956   4.049   3.052 -0.3648 -0.6943  1.8651
 4023SOL    HW212662   6.104   4.016   3.051  0.1655  1.2085 -1.8265
 4024SOL     OW12663   7.102   2.583   2.435  0.6306 -0.7659  0.2117
 4024SOL    HW112664   7.172   2.519   2.419  2.0730  0.3829  1.6248
 4024SOL    HW212665   7.122   2.655   2.375 -0.9285 -1.5109 -1.2951
 4025SOL     OW12666   4.205   0.253   2.518 -0.3559 -0.2161  0.0685
 4025SOL    HW112667   4.267   0.292   2.457  0.1105  0.0101  0.6782
 4025SOL    HW212668   4.218   0.301   2.600 -1.5393  0.0265  0.1278
 4026SOL     OW12669   4.417   2.850   3.320 -0.5841 -0.3561  0.2547
 4026SOL    HW112670   4.341   2.844   3.262 -0.4585  0.3709  0.0030
 4026SOL    HW212671   4.437   2.944   3.323 -0.1112 -0.4737  0.8552
 4027SOL     OW12672   5.763   2.539   0.036  0.2020  0.0899 -0.6703
 4027SOL    HW112673   5.811   2.504  -0.039  1.2172 -1.0767  0.4721
 4027SOL    HW212674   5.819   2.520   0.111 -1.8510 -0.9903  0.6940
 4028SOL     OW12675   1.844   1.501   0.476 -1.0507  0.1333 -0.4788
 4028SOL    HW112676   1.856   1.487   0.381 -2.3138  0.1572 -0.6577
 4028SOL    HW212677   1.926   1.540   0.505 -0.5947  0.0063 -1.5428
 4029SOL     OW12678   3.103   0.051   1.627 -0.1375  0.5067 -0.4207
 4029SOL    HW112679   3.142   0.017   1.707 -1.3531  1.5251  0.6420
 4029SOL    HW212680   3.023   0.095   1.656 -1.0128  0.2347 -2.2794
 4030SOL     OW12681   6.020   3.058   0.213 -0.3665 -0.3580 -0.2859
 4030SOL    HW112682   6.106   3.092   0.235 -0.5163  0.0839 -0.3841
 4030SOL    HW212683   5.965   3.082   0.287  0.0548 -2.4883  0.7935
 4031SOL     OW12684   6.736   0.632   1.775  0.4706  0.0364 -0.0362
 4031SOL    HW112685   6.670   0.635   1.845  1.1807 -0.4866  0.6820
 4031SOL    HW212686   6.818   0.652   1.819  0.8163  0.5290 -0.8937
 4032SOL     OW12687   5.196   0.805   3.323 -0.0744  0.2177  1.0371
 4032SOL    HW112688   5.241   0.721   3.310 -2.4454 -1.1700  1.2289
 4032SOL    HW212689   5.221   0.858   3.248 -1.6212 -2.1598 -1.3092
 4033SOL     OW12690   7.300   0.673   0.515 -0.0337  0.3772 -0.0715
 4033SOL    HW112691   7.351   0.651   0.438  0.6996  0.8854  0.2546
 4033SOL    HW212692   7.360   0.726   0.569 -1.3029  2.0605 -0.2486
 4034SOL     OW12693   1.197   2.515   2.440  0.0838  0.3027  0.8458
 4034SOL    HW112694   1.237   2.569   2.371  1.1645  0.3470  1.4831
 4034SOL    HW212695   1.163   2.438   2.393 -1.1944  1.3634 -0.0264
 4035SOL     OW12696   0.314   1.193   0.401  0.6522 -0.6929  0.4168
 4035SOL    HW112697   0.272   1.214   0.484 -0.3981 -0.0798 -0.2364
 4035SOL    HW212698   0.241   1.185   0.339  1.5020  0.7775 -0.8470
 4036SOL     OW12699   6.834   0.804   3.377 -0.3329 -0.2046  0.4879
 4036SOL    HW112700   6.876   0.734   3.327  0.3980  0.6037 -0.0520
 4036SOL    HW212701   6.835   0.879   3.318 -0.8257  0.3475  1.1761
 4037SOL     OW12702   6.109   1.072   1.290 -0.2472 -0.1067  0.0056
 4037SOL    HW112703   6.106   0.978   1.272  0.2820 -0.5086  1.7305
 4037SOL    HW212704   6.180   1.105   1.235 -0.1271 -0.8079 -0.2640
 4038SOL     OW12705   6.984   2.941   1.692 -0.7868 -0.2218 -0.2229
 4038SOL    HW112706   6.943   2.859   1.667  1.3254 -1.3196 -0.3451
 4038SOL    HW212707   7.007   2.983   1.609 -1.7362  0.4593 -0.1594
 4039SOL     OW12708   1.314   4.132   1.597  0.0891 -0.4625 -0.0759
 4039SOL    HW112709   1.287   4.217   1.562  0.1967 -0.4883 -0.2260
 4039SOL    HW212710   1.295   4.137   1.690  1.5884  0.3452  0.2306
 4040SOL     OW12711   3.379   0.112   2.806 -0.2385  0.4981 -0.0937
 4040SOL    HW112712   3.452   0.091   2.864  0.3639  0.9240 -0.6826
 4040SOL    HW212713   3.365   0.033   2.755 -0.9453  0.0311  0.7971
 4041SOL     OW12714   4.383   1.821   2.753  0.1073  0.1081  0.3137
 4041SOL    HW112715   4.366   1.843   2.845  1.0743  1.7320  0.1576
 4041SOL    HW212716   4.453   1.756   2.757 -0.4860 -0.5142  0.7447
 4042SOL     OW12717   3.108   3.485   2.918  0.7607 -0.1158  0.2945
 4042SOL    HW112718   3.170   3.555   2.938  1.8673 -0.8394 -0.5433
 4042SOL    HW212719   3.041   3.527   2.864  1.3474  0.3183 -0.0986
 4043SOL     OW12720   3.915   3.403   2.291 -0.5463 -0.3394  0.0442
 4043SOL    HW112721   3.824   3.430   2.300 -0.2468  0.6295  0.2709
 4043SOL    HW212722   3.961   3.480   2.258 -0.0294 -1.2139 -1.3505
 4044SOL     OW12723   5.519   0.167   2.778 -0.2397  0.3147 -0.4811
 4044SOL    HW112724   5.546   0.255   2.753 -0.0188  0.3803 -0.0194
 4044SOL    HW212725   5.457   0.140   2.709  1.1359  0.0826 -1.6834
 4045SOL     OW12726   1.861   0.861   3.101  0.1803 -0.0994  0.1403
 4045SOL    HW112727   1.900   0.948   3.110  1.0739 -0.2791 -1.6188
 4045SOL    HW212728   1.922   0.802   3.147  1.5204 -0.2327 -1.6863
 4046SOL     OW12729   3.287   2.455   2.357 -0.6659  0.5225  0.4804
 4046SOL    HW112730   3.249   2.440   2.270  1.0782  0.9837 -0.4143
 4046SOL    HW212731   3.381   2.442   2.344 -0.1844  2.2075  1.9305
 4047SOL     OW12732   2.047   1.600   2.443  0.2629 -0.4383  0.1730
 4047SOL    HW112733   1.989   1.540   2.490  0.3865 -0.0265  0.8688
 4047SOL    HW212734   2.134   1.564   2.457  0.3736  0.1004  0.9041
 4048SOL     OW12735   5.687   0.262   3.418  0.3975  0.0045  0.0470
 4048SOL    HW112736   5.629   0.185   3.416 -0.1321  0.4010  0.0497
 4048SOL    HW212737   5.723   0.266   3.329 -0.3252  0.3135 -0.2444
 4049SOL     OW12738   6.011   2.369   2.653  0.1530  0.7659  0.2457
 4049SOL    HW112739   6.039   2.280   2.632 -0.7889  0.7039 -0.8708
 4049SOL    HW212740   6.065   2.425   2.597 -1.6415  0.6607 -1.7013
 4050SOL     OW12741   6.381   0.959   2.681  0.3786 -0.1969  0.1399
 4050SOL    HW112742   6.323   0.907   2.736  1.4972 -0.7274  0.8624
 4050SOL    HW212743   6.345   1.047   2.683 -0.5896 -0.5878  0.2800
 4051SOL     OW12744   0.507   4.541   2.042 -0.5333  0.0898  0.1510
 4051SOL    HW112745   0.514   4.553   1.948 -0.5636  1.0205  0.2648
 4051SOL    HW212746   0.413   4.544   2.059 -0.4840  0.7950  0.3187
 4052SOL     OW12747   4.542   2.636   3.476  0.3560  0.0342  0.2244
 4052SOL    HW112748   4.511   2.673   3.394  0.9074  1.4034  0.6041
 4052SOL    HW212749   4.528   2.705   3.541 -0.0844 -1.0269  1.2932
 4053SOL     OW12750   6.814   3.380   0.511  0.2866  0.3560  0.2289
 4053SOL    HW112751   6.840   3.455   0.565  0.6453  0.5334 -0.1853
 4053SOL    HW212752   6.869   3.387   0.433  0.5891 -0.5635  0.3564
 4054SOL     OW12753   6.128   0.843   2.219 -0.6506 -0.0938 -0.0318
 4054SOL    HW112754   6.184   0.766   2.230 -2.0773 -1.3780 -1.4051
 4054SOL    HW212755   6.039   0.809   2.229 -1.3692  1.1151 -1.9658
 4055SOL     OW12756   7.079   4.937   0.357  0.0245  0.1652 -0.1173
 4055SOL    HW112757   7.004   4.986   0.388  0.8581  0.6457  1.2105
 4055SOL    HW212758   7.153   4.971   0.407  1.2287  0.0441 -1.7241
 4056SOL     OW12759   6.101   4.288   2.329 -0.5519  0.6617 -0.2164
 4056SOL    HW112760   6.067   4.205   2.295  1.5419 -0.8116  1.0483
 4056SOL    HW212761   6.152   4.263   2.406  1.7420  2.8752 -0.8840
 4057SOL     OW12762   2.232   4.855   0.620 -0.5804 -0.2000  0.2759
 4057SOL    HW112763   2.300   4.868   0.554 -1.8328 -3.5760 -1.9750
 4057SOL    HW212764   2.200   4.943   0.640  1.6827  1.1650 -1.5811
 4058SOL     OW12765   0.177   3.722   0.317  0.2831  0.1938 -0.0534
 4058SOL    HW112766   0.183   3.817   0.327 -0.1047 -0.0003  3.2620
 4058SOL    HW212767   0.207   3.688   0.401  0.9407 -2.6883 -1.3296
 4059SOL     OW12768   7.308   1.694   1.729 -0.2163  0.1953  0.5708
 4059SOL    HW112769   7.289   1.787   1.719  2.1425  0.7742  0.9730
 4059SOL    HW212770   7.222   1.653   1.739 -1.2499  2.4605  1.5556
 4060SOL     OW12771   4.299   1.233   0.212  0.1863  0.5406  0.3590
 4060SOL    HW112772   4.309   1.159   0.152 -0.3538 -0.5798  1.5994
 4060SOL    HW212773   4.260   1.302   0.158  3.8554  1.2243 -1.7280
 4061SOL     OW12774   4.296   0.112   2.936  0.5067 -0.3101 -0.2709
 4061SOL    HW112775   4.214   0.134   2.891  1.1598  2.0448 -0.4481
 4061SOL    HW212776   4.269   0.091   3.026 -0.3808 -0.5540 -0.5852
 4062SOL     OW12777   1.311   3.738   0.004  0.3331 -0.1948  0.0625
 4062SOL    HW112778   1.260   3.657  -0.003 -0.7365  0.5175 -0.7552
 4062SOL    HW212779   1.400   3.709   0.024 -0.4036 -1.4772  1.7313
 4063SOL     OW12780   6.968   0.340   0.386  0.2441 -0.7293  0.0274
 4063SOL    HW112781   7.044   0.377   0.340  0.2930  0.8554  1.2899
 4063SOL    HW212782   6.898   0.343   0.321  0.5437  0.5606 -0.2777
 4064SOL     OW12783   6.545   4.746   1.871  0.1077  0.4903 -0.5427
 4064SOL    HW112784   6.490   4.798   1.929 -0.5815 -0.9437  0.1374
 4064SOL    HW212785   6.486   4.716   1.802  1.0919  2.8975 -2.5755
 4065SOL     OW12786   2.016   2.104   1.258 -0.4392 -0.3698 -0.4215
 4065SOL    HW112787   2.106   2.128   1.279 -0.9756  0.8199  0.6130
 4065SOL    HW212788   1.999   2.144   1.172 -1.0306  2.3715  0.8788
 4066SOL     OW12789   3.016   3.516   1.759  0.2930 -0.4075 -0.1233
 4066SOL    HW112790   3.092   3.567   1.788  0.9401 -1.7100  0.5715
 4066SOL    HW212791   2.994   3.553   1.673  0.1118  1.6470  0.7570
 4067SOL     OW12792   6.370   0.292   0.324  0.2674 -0.4044  0.2739
 4067SOL    HW112793   6.424   0.242   0.386 -2.7366 -1.8038  1.9684
 4067SOL    HW212794   6.289   0.241   0.317 -1.2875  2.1121 -1.2657
 4068SOL     OW12795   4.091   4.292   2.242  0.1249 -0.1193  0.2086
 4068SOL    HW112796   4.158   4.320   2.304  0.4776 -1.2479  0.3662
 4068SOL    HW212797   4.036   4.232   2.293  0.0497 -0.5725 -0.3969
 4069SOL     OW12798   1.986   4.036   2.766 -0.1386  0.2450  0.1171
 4069SOL    HW112799   1.952   4.123   2.784  0.3254  0.2068  1.3251
 4069SOL    HW212800   1.987   4.029   2.671  0.1736  1.6962 -0.0084
 4070SOL     OW12801   4.548   1.533   2.189 -0.1536  0.0173 -0.2394
 4070SOL    HW112802   4.605   1.509   2.262 -0.8341  0.9705  0.6434
 4070SOL    HW212803   4.575   1.622   2.165 -0.6845  0.1478 -0.3858
 4071SOL     OW12804   0.086   2.693   3.229 -0.7298 -0.0358 -0.1384
 4071SOL    HW112805   0.146   2.719   3.299 -2.8041 -0.0208  1.7377
 4071SOL    HW212806   0.053   2.608   3.256 -1.2056 -0.2769 -1.4025
 4072SOL     OW12807   0.209   1.961   0.300  0.1205 -0.2524  0.2318
 4072SOL    HW112808   0.295   1.922   0.313 -0.2453 -1.2043 -0.1564
 4072SOL    HW212809   0.165   1.950   0.385  0.3080  0.0625  0.3717
 4073SOL     OW12810   2.082   0.324   3.212 -0.6942 -0.2395 -0.6920
 4073SOL    HW112811   2.156   0.265   3.228 -0.5241  0.3895  1.0943
 4073SOL    HW212812   2.056   0.354   3.299 -3.4364 -0.8544 -1.1999
 4074SOL     OW12813   3.323   0.220   3.317  0.0833 -0.0976  0.3509
 4074SOL    HW112814   3.235   0.247   3.291 -0.5552 -0.1353  2.3121
 4074SOL    HW212815   3.377   0.298   3.301 -0.3620  0.0374 -0.5432
 4075SOL     OW12816   1.737   3.445   2.770  0.3888  0.1119 -0.8146
 4075SOL    HW112817   1.726   3.516   2.707  1.1582 -0.1670 -1.2815
 4075SOL    HW212818   1.762   3.488   2.852 -2.1522  0.6025 -0.2343
 4076SOL     OW12819   5.644   3.934   0.895  0.4660 -0.1219 -0.0875
 4076SOL    HW112820   5.592   3.972   0.966  0.6868  1.7083 -0.8416
 4076SOL    HW212821   5.719   3.993   0.886  2.2517 -2.1912  0.3640
 4077SOL     OW12822   6.354   5.107   1.422 -0.0043 -0.3510 -0.0703
 4077SOL    HW112823   6.299   5.039   1.383  1.4981 -0.2321 -2.5419
 4077SOL    HW212824   6.343   5.094   1.516 -1.7191 -2.3785 -0.4601
 4078SOL     OW12825   1.159   4.805   1.820  0.1663 -0.3579  0.5191
 4078SOL    HW112826   1.230   4.861   1.789 -0.7896  1.1011  0.8664
 4078SOL    HW212827   1.125   4.850   1.897 -1.2847 -0.9074  0.2300
 4079SOL     OW12828   4.742   4.167   1.590  0.3180 -0.4069 -0.2570
 4079SOL    HW112829   4.788   4.250   1.580 -3.5093  1.9860 -0.1672
 4079SOL    HW212830   4.722   4.140   1.500  0.2909 -0.4188 -0.2475
 4080SOL     OW12831   6.249   4.576   3.129 -0.7061 -0.0267 -0.1252
 4080SOL    HW112832   6.225   4.509   3.193 -0.6737  0.2902  0.2235
 4080SOL    HW212833   6.308   4.634   3.177 -1.1628  0.5581 -0.2581
 4081SOL     OW12834   5.518   3.203   2.096  0.0682 -0.5338  0.1582
 4081SOL    HW112835   5.597   3.229   2.049  0.4593  0.8733  1.4933
 4081SOL    HW212836   5.548   3.138   2.160 -0.2235 -1.4415 -0.6081
 4082SOL     OW12837   4.235   3.863   3.287  0.3044 -0.4029 -0.1544
 4082SOL    HW112838   4.166   3.927   3.268  1.0408  0.9357  1.4198
 4082SOL    HW212839   4.299   3.876   3.217 -0.2779 -0.5066 -0.7117
 4083SOL     OW12840   0.319   1.988   0.641 -0.0911  0.1088 -0.0236
 4083SOL    HW112841   0.401   1.991   0.692 -0.5976 -2.0570  1.0487
 4083SOL    HW212842   0.315   1.898   0.608 -1.7348  0.3733 -0.6141
 4084SOL     OW12843   1.964   4.201   3.324  0.3067 -0.3020 -0.4181
 4084SOL    HW112844   1.900   4.159   3.267  0.2072  0.4920 -0.9044
 4084SOL    HW212845   2.006   4.129   3.370 -0.3461 -0.8841 -0.7225
 4085SOL     OW12846   7.223   0.076   2.147 -0.1815 -0.0091  0.3686
 4085SOL    HW112847   7.250   0.131   2.073 -2.8575  1.8792  0.6458
 4085SOL    HW212848   7.161   0.013   2.110 -0.2796 -0.1378  0.7428
 4086SOL     OW12849   2.684   1.760   2.990  0.3294 -0.2038 -0.2603
 4086SOL    HW112850   2.716   1.824   2.927  2.9159 -0.4573  0.6813
 4086SOL    HW212851   2.658   1.684   2.937  0.8504  0.2157 -1.1308
 4087SOL     OW12852   6.931   0.121   2.062 -0.4766  0.4005  0.0385
 4087SOL    HW112853   7.006   0.168   2.100 -0.0256  1.2094 -1.7232
 4087SOL    HW212854   6.856   0.152   2.112  0.0912  1.3845  0.3234
 4088SOL     OW12855   0.053   1.160   1.056  0.3075  0.2050  0.5458
 4088SOL    HW112856   0.098   1.091   1.007 -0.4132  0.7576 -0.9416
 4088SOL    HW212857  -0.038   1.155   1.027  0.6073  3.1509 -1.2991
 4089SOL     OW12858   1.936   2.703   3.004  0.0131  0.4004 -0.7714
 4089SOL    HW112859   1.898   2.776   3.052 -1.9587 -1.1449  0.1581
 4089SOL    HW212860   2.023   2.691   3.042 -0.4950  0.8885  0.5901
 4090SOL     OW12861   2.210   0.390   2.720  0.3194  0.0679 -0.2473
 4090SOL    HW112862   2.160   0.462   2.758  0.7509 -0.0534  0.5748
 4090SOL    HW212863   2.146   0.321   2.705  0.4075 -0.5865  2.0213
 4091SOL     OW12864   4.889   1.274   0.997  0.1159 -0.0047 -0.2983
 4091SOL    HW112865   4.798   1.304   0.997  0.1688  0.1538 -0.4736
 4091SOL    HW212866   4.884   1.186   1.035 -0.2450 -0.3944 -1.2275
 4092SOL     OW12867   0.233   1.411   3.393 -0.4301  0.2064 -0.0441
 4092SOL    HW112868   0.268   1.437   3.308  0.6309 -0.5084  0.1502
 4092SOL    HW212869   0.163   1.349   3.373  0.1072 -0.2973 -0.3935
 4093SOL     OW12870   5.870   2.425   3.319 -0.1822  0.2690 -0.4206
 4093SOL    HW112871   5.947   2.465   3.277 -0.3371  1.5871  0.4570
 4093SOL    HW212872   5.838   2.361   3.256  1.2087  0.2202 -1.1151
 4094SOL     OW12873   2.211   2.353   0.908  0.2623  0.2019 -0.3308
 4094SOL    HW112874   2.223   2.408   0.985 -0.7561 -0.5208  0.3636
 4094SOL    HW212875   2.162   2.409   0.847  0.5643  0.5832 -0.2257
 4095SOL     OW12876   5.469   1.065   1.603  0.6193  0.0524 -0.2495
 4095SOL    HW112877   5.501   1.152   1.628  1.5449 -0.3371 -0.0739
 4095SOL    HW212878   5.374   1.072   1.614  0.5893  1.2997 -1.0574
 4096SOL     OW12879   1.115   1.557   1.317 -0.3528 -0.0043 -0.0677
 4096SOL    HW112880   1.041   1.555   1.256 -0.3364 -0.5390 -0.0730
 4096SOL    HW212881   1.123   1.467   1.348  0.3934  0.0195 -0.1810
 4097SOL     OW12882   5.530   4.028   2.781  0.0435 -0.8624 -0.6043
 4097SOL    HW112883   5.536   3.948   2.833 -2.3542 -1.6676 -1.4228
 4097SOL    HW212884   5.438   4.055   2.789 -0.1769 -0.4443 -3.5509
 4098SOL     OW12885   1.037   3.070   0.970 -0.1242  0.2761 -0.4653
 4098SOL    HW112886   1.006   3.060   0.880 -1.4346 -1.5141  0.1245
 4098SOL    HW212887   0.975   3.132   1.010  0.5985  1.2568 -0.8289
 4099SOL     OW12888   0.976   5.044   0.038  0.1133  0.0633 -0.2113
 4099SOL    HW112889   1.028   5.089   0.104  0.4515 -0.4519 -0.1213
 4099SOL    HW212890   0.969   4.954   0.069  0.1925 -0.1618 -0.8243
 4100SOL     OW12891   1.095   1.893   2.282  0.6264 -0.5935 -0.1361
 4100SOL    HW112892   1.145   1.910   2.362  0.2541 -0.4114  0.0588
 4100SOL    HW212893   1.042   1.816   2.303  0.0234 -0.1411  0.0274
 4101SOL     OW12894   5.316   3.121   1.934 -0.3424  0.5696  0.1820
 4101SOL    HW112895   5.383   3.141   2.000 -0.8693  1.1153  0.5576
 4101SOL    HW212896   5.273   3.204   1.917 -0.8456  0.2476 -0.1476
 4102SOL     OW12897   5.450   2.724   1.866 -0.0949 -0.0702 -0.0090
 4102SOL    HW112898   5.527   2.741   1.812 -0.2347  1.5669  0.2565
 4102SOL    HW212899   5.381   2.702   1.804  0.6901 -2.1849 -0.2168
 4103SOL     OW12900   6.129   1.206   1.521 -0.2343 -0.3464 -0.1595
 4103SOL    HW112901   6.112   1.151   1.444 -1.3219  0.0668 -0.2377
 4103SOL    HW212902   6.048   1.199   1.573  0.5264 -0.7196  1.0200
 4104SOL     OW12903   4.488   3.098   2.295  0.0125  0.3609 -0.0067
 4104SOL    HW112904   4.415   3.157   2.314  0.2524 -0.0224  2.4314
 4104SOL    HW212905   4.536   3.142   2.225 -1.5406  1.4784 -0.4433
 4105SOL     OW12906   6.899   2.644   0.525  0.1612 -0.4361 -0.1744
 4105SOL    HW112907   6.971   2.687   0.479 -0.7112  0.4623 -0.7451
 4105SOL    HW212908   6.835   2.625   0.456 -1.5508  1.7036  0.6839
 4106SOL     OW12909   3.747   3.644   2.318  0.4098  0.7013  0.7220
 4106SOL    HW112910   3.731   3.644   2.412 -0.9724 -1.5927  0.5627
 4106SOL    HW212911   3.670   3.601   2.280  2.0320 -0.6825 -1.2228
 4107SOL     OW12912   4.254   0.886   1.737  0.0512  0.1657  0.2798
 4107SOL    HW112913   4.190   0.815   1.727 -1.2896  1.3889 -0.0448
 4107SOL    HW212914   4.334   0.841   1.765 -0.6826 -1.5054 -0.1537
 4108SOL     OW12915   4.973   0.663   2.568 -0.1945  0.1557 -0.2902
 4108SOL    HW112916   4.973   0.690   2.660  0.9800  1.1497 -0.5580
 4108SOL    HW212917   5.006   0.739   2.521  0.6393 -0.8493 -1.3756
 4109SOL     OW12918   0.731   4.989   0.166  0.6060 -0.1211  0.5082
 4109SOL    HW112919   0.806   5.028   0.121 -0.6040  1.2955 -0.3582
 4109SOL    HW212920   0.707   5.053   0.232  0.6252 -0.9313  1.3225
 4110SOL     OW12921   6.055   3.221   3.477 -0.0144 -0.3158 -0.0778
 4110SOL    HW112922   6.027   3.185   3.561 -2.1881  0.3240 -0.4648
 4110SOL    HW212923   5.989   3.191   3.415  0.2556  1.1350 -1.1158
 4111SOL     OW12924   1.151   2.475   1.009 -0.5830  0.4999 -0.2672
 4111SOL    HW112925   1.103   2.554   0.984 -0.4631 -0.1782 -2.9144
 4111SOL    HW212926   1.215   2.462   0.939  0.5502 -1.0287  0.9689
 4112SOL     OW12927   1.784   1.611   1.967  0.1875 -0.2799 -0.3810
 4112SOL    HW112928   1.866   1.616   2.016  0.2809 -1.6491 -0.3734
 4112SOL    HW212929   1.785   1.525   1.927 -1.9889 -1.0011  0.9430
 4113SOL     OW12930   3.230   4.395   0.382  0.0350 -0.3336  0.1699
 4113SOL    HW112931   3.222   4.343   0.462  0.0302 -0.4084  0.1220
 4113SOL    HW212932   3.255   4.482   0.412 -0.8104 -0.1369  0.3120
 4114SOL     OW12933   7.062   2.443   1.068  0.3619  0.2770 -0.0103
 4114SOL    HW112934   7.143   2.455   1.117  0.2985  0.3156  0.0846
 4114SOL    HW212935   7.008   2.389   1.126  0.5713 -0.3091 -0.3474
 4115SOL     OW12936   4.395   4.934   0.597 -0.0078 -0.4452  0.0598
 4115SOL    HW112937   4.317   4.980   0.565 -1.7886 -3.1635  0.1562
 4115SOL    HW212938   4.393   4.947   0.692  0.7427  0.9546 -0.0785
 4116SOL     OW12939   2.122   1.962   3.354 -0.4277 -0.6341 -0.1730
 4116SOL    HW112940   2.032   1.936   3.336 -0.8533 -0.4954  1.5868
 4116SOL    HW212941   2.124   2.057   3.337 -1.2650 -0.1814  1.9908
 4117SOL     OW12942   3.758   5.054   1.025  0.2613 -0.3396  0.0048
 4117SOL    HW112943   3.673   5.023   1.057 -0.2216  1.5835  0.7188
 4117SOL    HW212944   3.764   5.021   0.936 -0.7711 -1.3537  0.2871
 4118SOL     OW12945   6.672   2.468   2.997  0.6118 -0.2766 -0.2337
 4118SOL    HW112946   6.743   2.411   2.967  0.9256 -0.6458  1.1370
 4118SOL    HW212947   6.627   2.416   3.064  0.8801  1.0485  1.0157
 4119SOL     OW12948   5.519   0.208   0.219  0.2686 -0.2177  0.3889
 4119SOL    HW112949   5.445   0.247   0.265 -0.6898  0.2440 -1.4540
 4119SOL    HW212950   5.489   0.198   0.129  2.1194 -0.9444 -0.1980
 4120SOL     OW12951   3.760   3.809   1.103 -0.0010 -0.8677  0.0709
 4120SOL    HW112952   3.758   3.729   1.051 -1.0290 -0.9669  0.2249
 4120SOL    HW212953   3.673   3.848   1.089 -0.5658 -1.2300  2.1714
 4121SOL     OW12954   2.117   1.603   0.681 -0.1916 -0.3183 -0.2122
 4121SOL    HW112955   2.191   1.661   0.697  0.4733 -1.4847  1.1736
 4121SOL    HW212956   2.122   1.583   0.588  2.1976 -1.5550  0.0978
 4122SOL     OW12957   4.268   1.787   0.457 -0.0707  0.6611 -0.1971
 4122SOL    HW112958   4.321   1.866   0.470  1.1229 -0.0612 -0.5558
 4122SOL    HW212959   4.237   1.794   0.367 -0.2362  0.8737 -0.1253
 4123SOL     OW12960   6.539   0.805   1.612  0.6435  0.1073 -0.0976
 4123SOL    HW112961   6.562   0.736   1.675  0.7354 -0.9259 -1.2143
 4123SOL    HW212962   6.591   0.881   1.639  1.6240 -0.6973  0.3435
 4124SOL     OW12963   4.877   0.344   0.002  0.0470  0.3539  0.4787
 4124SOL    HW112964   4.788   0.309   0.007 -0.3313  1.3442  0.9529
 4124SOL    HW212965   4.917   0.318   0.085 -1.2265  3.5316  2.2903
 4125SOL     OW12966   4.770   0.023   3.455 -0.4054  0.1153  0.0117
 4125SOL    HW112967   4.708   0.072   3.401 -0.3429  1.3538  1.0328
 4125SOL    HW212968   4.748   0.045   3.545  1.2835  0.3041  0.4212
 4126SOL     OW12969   1.528   5.233   0.025 -0.0963 -0.1163  0.1006
 4126SOL    HW112970   1.490   5.206   0.109 -1.1331 -0.1365 -0.3598
 4126SOL    HW212971   1.607   5.179   0.016 -0.5032 -0.8181  0.6128
 4127SOL     OW12972   0.258   3.982   2.716  0.1382 -0.0667  0.3456
 4127SOL    HW112973   0.351   3.962   2.728  0.5735  0.2583 -2.0565
 4127SOL    HW212974   0.214   3.897   2.716  0.6849 -0.3486 -0.3704
 4128SOL     OW12975   6.315   4.460   2.273  0.0949  0.2662 -0.1978
 4128SOL    HW112976   6.348   4.457   2.363 -1.1516 -1.1766  0.2430
 4128SOL    HW212977   6.240   4.400   2.272  0.9520 -0.9034 -2.5528
 4129SOL     OW12978   0.753   3.737   2.546 -0.2805 -0.6203 -0.9183
 4129SOL    HW112979   0.678   3.730   2.487  1.0902 -0.0313 -2.8396
 4129SOL    HW212980   0.766   3.831   2.557 -1.0975 -0.7054  1.1847
 4130SOL     OW12981   0.243   0.138   2.477 -0.3153 -0.2589  0.1097
 4130SOL    HW112982   0.215   0.046   2.475  0.6613 -0.5561 -0.3432
 4130SOL    HW212983   0.246   0.160   2.570 -0.3684 -0.7441  0.2299
 4131SOL     OW12984   5.820   3.506   2.348 -0.6033  0.1165 -0.0878
 4131SOL    HW112985   5.856   3.536   2.264 -1.0588  0.4082 -0.1787
 4131SOL    HW212986   5.727   3.528   2.344 -0.5327  0.5890  0.6977
 4132SOL     OW12987   2.981   2.120   3.315 -0.0547 -0.2645  0.4976
 4132SOL    HW112988   3.044   2.125   3.243 -0.2857 -1.0654  0.2244
 4132SOL    HW212989   3.017   2.053   3.373  0.5817  1.0063  1.5862
 4133SOL     OW12990   5.495   4.978   1.022 -0.2438 -0.2430 -0.0165
 4133SOL    HW112991   5.558   5.026   1.075  0.1354  0.8297 -1.3683
 4133SOL    HW212992   5.451   4.919   1.083  0.4606  0.6432  1.3852
 4134SOL     OW12993   5.343   4.282   0.544 -0.1587 -0.3735 -0.1347
 4134SOL    HW112994   5.345   4.371   0.577 -0.9523 -0.0482 -0.9115
 4134SOL    HW212995   5.311   4.291   0.454  0.0068 -1.4121 -0.3097
 4135SOL     OW12996   5.128   1.876   3.057  0.1600  0.4082 -0.0846
 4135SOL    HW112997   5.093   1.852   2.972 -0.9048  0.9541  0.1816
 4135SOL    HW212998   5.203   1.818   3.070  0.5705  0.5910 -1.5490
 4136SOL     OW12999   2.659   4.084   2.720  0.1380  0.0528 -0.0236
 4136SOL    HW113000   2.577   4.099   2.673 -0.2858  0.2159  0.7512
 4136SOL    HW213001   2.698   4.009   2.676 -0.7224 -0.4112 -0.0190
 4137SOL     OW13002   3.898   2.635   2.669  0.1133 -0.0705 -0.0863
 4137SOL    HW113003   3.824   2.652   2.611 -0.6070  0.1341  0.8538
 4137SOL    HW213004   3.922   2.721   2.703 -0.9708 -0.3883  1.6447
 4138SOL     OW13005   6.959   3.454   2.820  0.9073  0.3262  0.8268
 4138SOL    HW113006   7.013   3.387   2.777 -1.0329 -1.7051  1.3476
 4138SOL    HW213007   7.011   3.482   2.895  2.2657  0.2696 -0.0662
 4139SOL     OW13008   5.662   3.959   0.441  0.0171  0.8224 -0.0909
 4139SOL    HW113009   5.703   3.886   0.488  0.3769 -0.2231 -1.9165
 4139SOL    HW213010   5.640   4.022   0.509  2.6898  0.4765  1.2096
 4140SOL     OW13011   0.748   5.175   3.026 -0.9635 -0.3221  0.6159
 4140SOL    HW113012   0.833   5.182   2.982 -1.4456  1.4369 -0.1071
 4140SOL    HW213013   0.755   5.231   3.103 -1.5568  0.1099  0.3682
 4141SOL     OW13014   3.822   1.860   3.224 -0.0067  0.0399 -0.2393
 4141SOL    HW113015   3.810   1.768   3.201 -1.6993  0.0929  0.2494
 4141SOL    HW213016   3.850   1.902   3.143  0.2301 -0.8167 -0.6071
 4142SOL     OW13017   5.780   3.905   2.132  0.3657  0.0380  0.1981
 4142SOL    HW113018   5.717   3.968   2.168  0.5729  1.2169 -1.4388
 4142SOL    HW213019   5.865   3.937   2.162  0.3992 -0.0206  0.1650
 4143SOL     OW13020   6.831   4.669   0.216  0.5556  0.0195 -0.0715
 4143SOL    HW113021   6.749   4.706   0.185  1.6783  2.6978 -0.1652
 4143SOL    HW213022   6.808   4.583   0.250 -2.1678  0.4717 -0.5660
 4144SOL     OW13023   7.058   5.071   3.465 -0.0221  0.0704  0.4547
 4144SOL    HW113024   7.033   5.012   3.536  0.4186 -0.3548  0.2627
 4144SOL    HW213025   7.111   5.138   3.506  2.1683 -1.4096  0.2226
 4145SOL     OW13026   3.253   1.369   2.991 -0.0748 -0.1182 -0.2291
 4145SOL    HW113027   3.286   1.428   3.059  1.6679 -0.1261 -1.0107
 4145SOL    HW213028   3.261   1.281   3.029  0.0477 -0.0537 -0.1043
 4146SOL     OW13029   7.038   4.123   2.661  0.1949  0.4417 -0.4399
 4146SOL    HW113030   6.999   4.207   2.637 -0.8107  0.4956  1.1835
 4146SOL    HW213031   7.049   4.076   2.579 -2.3631  0.8462 -1.0982
 4147SOL     OW13032   3.847   1.625   0.550 -0.6373 -0.4761 -0.1092
 4147SOL    HW113033   3.790   1.676   0.492  0.9716  1.5618 -0.0134
 4147SOL    HW213034   3.894   1.565   0.492  0.4598  1.0688 -0.8857
 4148SOL     OW13035   5.112   4.309   2.913 -0.7056 -0.3367  0.2609
 4148SOL    HW113036   5.150   4.316   3.000 -0.3846  0.4482  0.0666
 4148SOL    HW213037   5.168   4.363   2.858 -1.6404  0.2008 -0.1910
 4149SOL     OW13038   4.819   0.422   2.558 -0.4246  0.2881  0.4343
 4149SOL    HW113039   4.862   0.507   2.565 -0.7462  0.4647  0.2552
 4149SOL    HW213040   4.775   0.424   2.474  0.8098 -0.6248 -0.2751
 4150SOL     OW13041   1.077   1.993   3.219 -0.4662 -0.0396 -0.0062
 4150SOL    HW113042   1.042   1.968   3.305 -0.7496 -1.7662 -0.5882
 4150SOL    HW213043   1.140   2.062   3.238  1.3329 -2.0526  1.9094
 4151SOL     OW13044   7.346   0.369   1.558 -0.4655  0.0314 -0.1445
 4151SOL    HW113045   7.255   0.351   1.580 -0.5768 -1.2299 -1.5207
 4151SOL    HW213046   7.343   0.404   1.469  0.3466  0.7870  0.0981
 4152SOL     OW13047   4.964   0.184   3.246 -0.5974 -0.3434 -0.4339
 4152SOL    HW113048   4.999   0.115   3.302  1.2865  0.2485 -0.7918
 4152SOL    HW213049   4.911   0.239   3.304  0.3558 -0.4078  0.5207
 4153SOL     OW13050   3.284   2.325   0.312  0.6649  0.4488  0.0361
 4153SOL    HW113051   3.207   2.381   0.318  1.1399  1.4212 -2.0922
 4153SOL    HW213052   3.293   2.306   0.219  2.8780  0.1629  0.2489
 4154SOL     OW13053   0.445   3.026   1.618 -0.1839  0.2221 -0.5112
 4154SOL    HW113054   0.359   3.065   1.633  0.0585  0.6530 -0.2118
 4154SOL    HW213055   0.507   3.092   1.650  0.2374 -0.3205 -0.1976
 4155SOL     OW13056   3.781   3.339   3.356  0.0657  0.1441 -0.0365
 4155SOL    HW113057   3.855   3.314   3.302 -0.4308 -0.4125 -0.4820
 4155SOL    HW213058   3.792   3.433   3.372  1.4384 -0.1490  0.8234
 4156SOL     OW13059   7.176   3.483   3.003 -0.7609 -0.2934 -0.3679
 4156SOL    HW113060   7.206   3.549   3.065  0.8039 -1.5726  0.3305
 4156SOL    HW213061   7.189   3.400   3.049 -1.6970 -1.1445 -1.5929
 4157SOL     OW13062   5.950   3.094   0.616 -0.1899  0.6569 -0.0479
 4157SOL    HW113063   5.896   3.136   0.549  2.0541  1.0772 -1.7353
 4157SOL    HW213064   5.937   3.000   0.602 -1.8148  0.7255  0.7874
 4158SOL     OW13065   1.399   2.930   1.840 -0.0085 -0.2438  0.1429
 4158SOL    HW113066   1.346   2.926   1.760  0.1538 -0.7049  0.0580
 4158SOL    HW213067   1.488   2.949   1.810 -0.1285  0.6001  0.2908
 4159SOL     OW13068   2.398   3.203   1.457 -0.4896  0.1765 -0.3606
 4159SOL    HW113069   2.464   3.157   1.405 -0.6388 -1.1378  0.5603
 4159SOL    HW213070   2.376   3.280   1.405  1.1674  0.2209 -1.0732
 4160SOL     OW13071   3.869   0.041   2.411 -0.3070 -0.1339  0.0726
 4160SOL    HW113072   3.921   0.058   2.333  1.1486  0.4750  1.1230
 4160SOL    HW213073   3.869  -0.054   2.420  1.7768 -0.1150  0.7455
 4161SOL     OW13074   6.236   5.244   3.197  0.0158  0.3625  0.0200
 4161SOL    HW113075   6.265   5.334   3.182  1.0296 -0.2721 -2.2889
 4161SOL    HW213076   6.167   5.230   3.133 -0.6076 -0.3207  0.8170
 4162SOL     OW13077   6.993   2.510   2.683 -0.2635 -0.0903 -0.4173
 4162SOL    HW113078   7.050   2.549   2.617 -0.1141 -0.3133 -0.4201
 4162SOL    HW213079   6.949   2.438   2.638  0.8761 -1.1291  0.0883
 4163SOL     OW13080   4.684   0.768   2.815  0.4983  0.0132 -0.0182
 4163SOL    HW113081   4.752   0.712   2.852 -0.6791 -1.1408  0.4830
 4163SOL    HW213082   4.612   0.708   2.794 -1.5341  1.4707  2.1703
 4164SOL     OW13083   6.856   3.133   2.976  0.0250 -0.3400 -0.1946
 4164SOL    HW113084   6.806   3.052   2.964 -0.9095  0.2116 -0.1019
 4164SOL    HW213085   6.948   3.106   2.971 -0.2771 -1.4444  0.0863
 4165SOL     OW13086   2.482   3.280   3.261 -0.1383 -0.0428 -0.6940
 4165SOL    HW113087   2.571   3.247   3.243  0.9087 -0.4385  3.8111
 4165SOL    HW213088   2.424   3.218   3.218  1.8012 -1.1774 -1.8129
 4166SOL     OW13089   5.600   2.886   1.196  0.2160  0.0407 -0.3581
 4166SOL    HW113090   5.625   2.957   1.137  1.1335 -0.2319 -0.3063
 4166SOL    HW213091   5.507   2.872   1.179  0.4943 -0.1316 -1.8358
 4167SOL     OW13092   6.249   3.407   1.322  0.3002  0.4575 -0.3964
 4167SOL    HW113093   6.287   3.468   1.385  0.8401  1.7533 -1.9147
 4167SOL    HW213094   6.219   3.334   1.375  0.0773  1.8056  1.4522
 4168SOL     OW13095   0.434   0.956   1.606 -0.8678 -0.3266  0.4600
 4168SOL    HW113096   0.505   1.012   1.574 -0.2644 -0.4099  1.6206
 4168SOL    HW213097   0.398   1.002   1.681  1.4134 -2.6354  3.1953
 4169SOL     OW13098   6.871   2.271   2.911  0.0509  0.6040  0.2356
 4169SOL    HW113099   6.887   2.256   2.818 -0.1580 -0.5036  0.3638
 4169SOL    HW213100   6.950   2.238   2.955 -0.7022 -0.8498  0.5732
 4170SOL     OW13101   4.036   0.146   2.877 -0.4218  0.6074  0.3861
 4170SOL    HW113102   3.973   0.197   2.825 -1.2294 -1.0542 -0.3397
 4170SOL    HW213103   3.982   0.086   2.928  0.5571 -1.3170 -0.7402
 4171SOL     OW13104   2.509   3.095   1.883  0.1501  0.1342 -0.1184
 4171SOL    HW113105   2.432   3.091   1.827  1.1926  1.0062 -1.6831
 4171SOL    HW213106   2.532   3.188   1.886  1.0962 -0.1042  0.3881
 4172SOL     OW13107   5.939   1.971   2.302  0.1320 -0.1361  0.3744
 4172SOL    HW113108   5.858   1.921   2.305  0.3072 -0.5578 -1.0956
 4172SOL    HW213109   6.008   1.905   2.303  0.3518 -0.1531 -3.1368
 4173SOL     OW13110   0.079   0.890   1.723 -0.4619  0.7440  0.1044
 4173SOL    HW113111   0.117   0.934   1.646 -0.7156  2.0702  0.7048
 4173SOL    HW213112   0.039   0.811   1.688  0.5725  0.6485 -0.9348
 4174SOL     OW13113   4.079   3.834   2.854  0.1021  0.2267  0.2286
 4174SOL    HW113114   4.147   3.902   2.859 -1.5278  1.9250  0.9641
 4174SOL    HW213115   4.126   3.754   2.833  2.2485  1.4212  0.1631
 4175SOL     OW13116   7.047   2.318   0.641 -0.4807  0.7178  0.1152
 4175SOL    HW113117   7.128   2.278   0.672 -0.3694  0.4593 -0.4839
 4175SOL    HW213118   7.070   2.409   0.623  0.0760  0.3161 -1.4182
 4176SOL     OW13119   4.188   2.429   2.829 -0.2346  0.3865 -0.4172
 4176SOL    HW113120   4.279   2.402   2.814  0.2500  1.6169  0.1125
 4176SOL    HW213121   4.194   2.524   2.842 -1.1470  0.1434  2.6357
 4177SOL     OW13122   7.227   0.600   2.561 -0.3056  0.2574  0.1227
 4177SOL    HW113123   7.159   0.629   2.621 -1.7150  0.0805 -1.3318
 4177SOL    HW213124   7.232   0.505   2.574 -1.5104  0.0323 -0.8905
 4178SOL     OW13125   0.155   0.898   0.377  0.0094 -0.0492 -0.1508
 4178SOL    HW113126   0.089   0.944   0.324  0.4206  0.6369 -0.0659
 4178SOL    HW213127   0.210   0.854   0.312  0.4044  0.6441 -0.2908
 4179SOL     OW13128   5.702   1.043   0.232  0.5236 -0.5122  0.0579
 4179SOL    HW113129   5.699   1.094   0.313  2.1083 -0.2704 -0.0020
 4179SOL    HW213130   5.719   0.953   0.260  3.1381 -0.1180 -0.0331
 4180SOL     OW13131   2.345   2.844   0.098 -0.2697  0.0725 -0.3111
 4180SOL    HW113132   2.320   2.803   0.181  0.4696 -0.6076 -0.4041
 4180SOL    HW213133   2.264   2.881   0.063 -0.2497  2.4192  1.8048
 4181SOL     OW13134   5.107   0.689   0.342  0.2044  0.1116 -0.5072
 4181SOL    HW113135   5.081   0.746   0.414  1.3788  1.7466 -1.3157
 4181SOL    HW213136   5.046   0.615   0.346 -0.7256  0.9287  1.1868
 4182SOL     OW13137   4.753   0.289   0.595 -0.7735 -0.4656  0.5765
 4182SOL    HW113138   4.833   0.317   0.640 -1.2635 -0.3677  1.4154
 4182SOL    HW213139   4.739   0.354   0.527  0.8287 -1.4430 -0.7886
 4183SOL     OW13140   6.549   2.454   1.367 -0.1760  0.1017 -0.0543
 4183SOL    HW113141   6.472   2.509   1.380  0.6717  1.0684  1.0975
 4183SOL    HW213142   6.569   2.463   1.274 -1.3042  0.0024 -0.3310
 4184SOL     OW13143   3.629   0.787   1.264  0.2034 -0.3087  0.4616
 4184SOL    HW113144   3.707   0.788   1.208 -1.3961  0.4088 -1.9366
 4184SOL    HW213145   3.614   0.695   1.283  1.8175 -0.4319  1.2918
 4185SOL     OW13146   5.895   4.653   0.353 -0.4286 -0.3360  0.2255
 4185SOL    HW113147   5.986   4.637   0.379 -0.0880 -0.3963 -0.9177
 4185SOL    HW213148   5.884   4.748   0.362  0.2097 -0.1257 -0.9485
 4186SOL     OW13149   3.141   4.122   1.523  0.9151 -0.7004  0.2170
 4186SOL    HW113150   3.091   4.193   1.564  2.3544 -0.0365  0.9029
 4186SOL    HW213151   3.078   4.079   1.465 -0.1492  0.8089  0.1741
 4187SOL     OW13152   4.639   1.423   2.434  0.8972  0.1802  0.0273
 4187SOL    HW113153   4.713   1.483   2.440  1.2800 -0.3330  0.4556
 4187SOL    HW213154   4.677   1.340   2.406  0.2977  0.2639 -1.1242
 4188SOL     OW13155   0.884   2.547   0.356  0.1772  0.1033 -0.2813
 4188SOL    HW113156   0.909   2.471   0.407 -1.5937  1.1341  2.3647
 4188SOL    HW213157   0.804   2.520   0.310  0.8045 -0.2761 -1.1903
 4189SOL     OW13158   5.614   1.265   1.792  0.3151 -0.0618 -0.3815
 4189SOL    HW113159   5.542   1.270   1.855 -0.0248 -0.0968 -0.7638
 4189SOL    HW213160   5.613   1.349   1.748 -0.1800 -0.4515 -1.1322
 4190SOL     OW13161   3.099   5.090   0.719  0.2218  0.1368  0.6099
 4190SOL    HW113162   3.155   5.064   0.793  0.3943  2.4254  1.3695
 4190SOL    HW213163   3.010   5.087   0.754  0.2155  0.1837  0.5987
 4191SOL     OW13164   5.000   3.659   1.485  0.6486 -0.0096  0.3629
 4191SOL    HW113165   4.943   3.599   1.533 -1.6890  1.2395 -0.6761
 4191SOL    HW213166   4.956   3.744   1.494  2.0864  0.9080 -0.9599
 4192SOL     OW13167   4.777   3.154   2.331  0.0446 -0.7004 -0.3472
 4192SOL    HW113168   4.870   3.141   2.348 -0.1739 -2.2904 -0.2253
 4192SOL    HW213169   4.733   3.103   2.399 -0.9487  0.6856  0.0999
 4193SOL     OW13170   6.137   4.645   0.915  0.3497 -0.4990  0.1130
 4193SOL    HW113171   6.096   4.728   0.893  0.7347 -0.4353 -0.3619
 4193SOL    HW213172   6.153   4.650   1.009  0.5800  0.0498  0.0413
 4194SOL     OW13173   2.523   4.115   2.340  0.8794  0.5298  0.4006
 4194SOL    HW113174   2.601   4.079   2.382  2.3098  2.3096 -0.5806
 4194SOL    HW213175   2.535   4.095   2.247  0.2292  0.9589  0.2214
 4195SOL     OW13176   0.375   3.836   1.460  0.2275 -0.6086 -0.3113
 4195SOL    HW113177   0.309   3.768   1.445  0.2701 -0.5899 -0.5866
 4195SOL    HW213178   0.403   3.822   1.551  0.5475 -1.2360 -0.4985
 4196SOL     OW13179   1.289   2.247   0.423  0.1174  0.1551  0.2402
 4196SOL    HW113180   1.227   2.193   0.374 -0.2103  0.1907  0.6067
 4196SOL    HW213181   1.275   2.221   0.514  2.6985 -2.0058  0.1521
 4197SOL     OW13182   6.303   3.450   1.872 -0.1045  0.3765 -0.1765
 4197SOL    HW113183   6.368   3.520   1.876  1.1054 -0.6912 -0.5880
 4197SOL    HW213184   6.230   3.483   1.926 -0.5151  2.8465 -2.0609
 4198SOL     OW13185   1.030   0.536   2.764 -0.4060  0.3341 -0.3549
 4198SOL    HW113186   0.940   0.537   2.730  0.3344  1.3008 -2.4816
 4198SOL    HW213187   1.056   0.628   2.763  0.6278  0.0504  0.1863
 4199SOL     OW13188   3.268   1.595   3.148 -0.0380 -0.4509 -0.2353
 4199SOL    HW113189   3.311   1.612   3.232 -2.8628  0.0802  1.2254
 4199SOL    HW213190   3.198   1.660   3.143  0.2917 -0.2015 -3.2450
 4200SOL     OW13191   2.123   3.928   0.609 -0.2338 -0.0163  0.0868
 4200SOL    HW113192   2.029   3.937   0.622 -0.3417  0.6221 -1.0466
 4200SOL    HW213193   2.144   3.988   0.538  0.7223 -1.5574 -0.9939
 4201SOL     OW13194   1.450   4.734   3.014  0.0725 -0.1885  0.5570
 4201SOL    HW113195   1.475   4.744   3.106  1.1095  1.9884  0.1120
 4201SOL    HW213196   1.364   4.776   3.008 -2.1772 -4.1756  1.2838
 4202SOL     OW13197   5.572   1.136   2.948  0.0141 -0.3976 -0.8723
 4202SOL    HW113198   5.484   1.160   2.922  0.6617  3.2614 -0.2234
 4202SOL    HW213199   5.621   1.128   2.866 -0.7120 -1.8296 -1.1973
 4203SOL     OW13200   3.943   0.607   3.035 -0.4146 -0.4974 -0.0484
 4203SOL    HW113201   3.919   0.685   3.084 -1.5834 -0.3141 -0.8513
 4203SOL    HW213202   3.924   0.630   2.943  1.5529 -0.8722 -0.5879
 4204SOL     OW13203   6.457   2.468   2.240 -0.2556 -0.0985  0.3943
 4204SOL    HW113204   6.410   2.396   2.281 -0.5510 -0.2612 -0.2222
 4204SOL    HW213205   6.434   2.545   2.292 -0.0789 -0.4137  0.9447
 4205SOL     OW13206   0.873   2.856   1.534 -0.3057 -0.3784 -0.0416
 4205SOL    HW113207   0.782   2.826   1.528 -0.2013 -1.0172  1.2081
 4205SOL    HW213208   0.925   2.777   1.520  0.0139 -0.4100  1.2531
 4206SOL     OW13209   2.341   5.210   0.968 -0.1846  0.6301  0.7764
 4206SOL    HW113210   2.424   5.254   0.984 -0.1000  1.3753 -1.3167
 4206SOL    HW213211   2.359   5.118   0.983 -0.1000  1.0997  4.2871
 4207SOL     OW13212   2.831   4.514   2.029  0.6228 -0.0071  0.0802
 4207SOL    HW113213   2.770   4.483   2.096 -1.7308  3.4256 -0.2200
 4207SOL    HW213214   2.820   4.453   1.956 -1.4791 -0.2242  0.5313
 4208SOL     OW13215   1.359   5.131   3.016  0.0164  0.3490 -0.3370
 4208SOL    HW113216   1.375   5.198   2.950 -0.1848 -0.2178 -0.9742
 4208SOL    HW213217   1.446   5.099   3.040  0.1503  1.2311  0.4004
 4209SOL     OW13218   5.817   0.782   1.338 -0.4330 -0.0407  0.2372
 4209SOL    HW113219   5.871   0.717   1.384  0.4989  0.8460  0.4408
 4209SOL    HW213220   5.758   0.816   1.405  0.5135  0.8144  0.6783
 4210SOL     OW13221   3.461   4.785   0.588 -0.6766  0.4103 -0.2978
 4210SOL    HW113222   3.549   4.767   0.556 -0.3805 -0.4171  0.9071
 4210SOL    HW213223   3.431   4.859   0.535  1.1440  1.4209 -0.0099
 4211SOL     OW13224   3.334   1.233   2.735  0.3601  0.8490 -0.0502
 4211SOL    HW113225   3.318   1.279   2.818 -1.9762 -1.0077  0.6513
 4211SOL    HW213226   3.292   1.288   2.669  2.3196  2.3940 -0.0932
 4212SOL     OW13227   5.849   3.106   2.523 -0.4106 -0.5430  0.0599
 4212SOL    HW113228   5.826   3.056   2.445 -0.7010 -1.8980  0.9907
 4212SOL    HW213229   5.893   3.044   2.580  1.2399  0.8204  0.3409
 4213SOL     OW13230   3.457   4.040   1.636 -0.0911 -0.0040  0.0518
 4213SOL    HW113231   3.444   4.089   1.555  0.3821 -0.5279 -0.3457
 4213SOL    HW213232   3.438   3.949   1.613  1.2491 -0.3467  0.1966
 4214SOL     OW13233   7.008   1.304   3.413 -0.2585 -0.5406 -0.3292
 4214SOL    HW113234   7.031   1.239   3.346  0.1108 -1.7339  0.9120
 4214SOL    HW213235   6.914   1.320   3.400 -0.4382 -1.6129 -0.4333
 4215SOL     OW13236   3.446   3.797   2.713 -0.2723 -0.5909  0.2953
 4215SOL    HW113237   3.500   3.875   2.727  1.1745 -0.9649 -2.4041
 4215SOL    HW213238   3.370   3.829   2.665 -0.8507 -0.5401  1.2258
 4216SOL     OW13239   2.441   0.423   2.578 -0.1413  0.3455  0.4051
 4216SOL    HW113240   2.358   0.401   2.620 -0.2886  0.2191  0.0554
 4216SOL    HW213241   2.426   0.508   2.537  0.1602  0.7071  1.0304
 4217SOL     OW13242   4.082   0.653   1.713 -0.6200 -0.5886  0.3257
 4217SOL    HW113243   4.130   0.582   1.671 -0.3816  0.1056 -0.6009
 4217SOL    HW213244   4.012   0.675   1.651 -0.3952  0.3103  0.3731
 4218SOL     OW13245   4.903   4.429   2.310 -0.0036  0.1671  0.1054
 4218SOL    HW113246   4.830   4.395   2.361 -0.5035  1.3508  0.2007
 4218SOL    HW213247   4.973   4.365   2.324 -0.8088 -0.6435  0.5299
 4219SOL     OW13248   5.037   3.836   0.851 -0.4523 -0.0298  0.5573
 4219SOL    HW113249   4.976   3.908   0.835  0.2406  0.4521  0.0118
 4219SOL    HW213250   5.043   3.831   0.946  0.3776  1.4352  0.6243
 4220SOL     OW13251   6.817   2.491   1.342 -0.1078  0.0675 -0.3030
 4220SOL    HW113252   6.848   2.577   1.370  0.0030 -0.5146  1.4846
 4220SOL    HW213253   6.725   2.490   1.365 -0.7707  0.5980 -2.6607
 4221SOL     OW13254   6.316   1.040   0.601  0.5640 -0.0545  0.1159
 4221SOL    HW113255   6.319   1.135   0.589  1.3832 -0.0007  0.6588
 4221SOL    HW213256   6.403   1.018   0.634 -0.2911 -0.7071  2.0607
 4222SOL     OW13257   6.460   3.855   0.152  0.0731  0.1505  0.7865
 4222SOL    HW113258   6.480   3.762   0.142 -1.4171 -0.1744  0.5808
 4222SOL    HW213259   6.411   3.861   0.234  0.5840  0.8343  1.0505
 4223SOL     OW13260   3.897   3.954   0.472  0.0395 -0.3424  0.3760
 4223SOL    HW113261   3.966   3.925   0.412 -0.2335 -0.0299 -0.0996
 4223SOL    HW213262   3.894   3.887   0.540  3.2414  1.3148  2.4145
 4224SOL     OW13263   5.865   0.575   2.814  0.0356 -0.5726  0.1922
 4224SOL    HW113264   5.885   0.506   2.877 -1.5017 -1.0855  0.1638
 4224SOL    HW213265   5.830   0.647   2.867  1.0804 -0.0202  0.1592
 4225SOL     OW13266   2.927   3.256   2.786  0.1458  0.4240  0.4646
 4225SOL    HW113267   2.865   3.261   2.859 -1.4732  0.6561 -0.8520
 4225SOL    HW213268   3.012   3.276   2.824 -0.5443 -0.1193  2.3957
 4226SOL     OW13269   2.505   2.128   0.099  0.5337 -0.8927 -0.0648
 4226SOL    HW113270   2.483   2.162   0.012 -1.3644  1.8620  1.3492
 4226SOL    HW213271   2.440   2.167   0.157  3.6612  0.0626  3.0951
 4227SOL     OW13272   1.105   4.158   2.786 -0.2472  0.0820 -0.0389
 4227SOL    HW113273   1.031   4.144   2.845  0.6564  0.3860  1.2020
 4227SOL    HW213274   1.143   4.071   2.774 -0.4562  0.0139 -0.2039
 4228SOL     OW13275   4.883   2.765   2.417  0.4184 -0.0698 -0.0761
 4228SOL    HW113276   4.878   2.794   2.326  1.5449 -0.0776 -0.1510
 4228SOL    HW213277   4.905   2.673   2.411 -1.1621 -0.4925  0.1984
 4229SOL     OW13278   4.233   0.553   0.358  0.0633  0.0010 -0.4449
 4229SOL    HW113279   4.296   0.602   0.305 -1.1152  0.9888 -1.0041
 4229SOL    HW213280   4.168   0.618   0.383 -0.0493 -0.7066  1.2438
 4230SOL     OW13281   4.848   1.667   2.959 -0.3230 -0.5601  0.0578
 4230SOL    HW113282   4.917   1.704   2.903 -0.9187 -0.3933 -0.5833
 4230SOL    HW213283   4.795   1.742   2.984 -0.1462 -0.6600  0.7371
 4231SOL     OW13284   5.316   3.799   0.352  0.1071 -0.0298  0.3210
 4231SOL    HW113285   5.386   3.796   0.287  0.2759 -0.1934  0.5132
 4231SOL    HW213286   5.321   3.887   0.389  0.9795 -0.4285  1.1899
 4232SOL     OW13287   0.835   1.831   2.567 -0.2980 -0.0041  0.3534
 4232SOL    HW113288   0.831   1.794   2.655 -0.8148 -0.6821  0.0609
 4232SOL    HW213289   0.749   1.872   2.554  0.1159  0.9201  0.5099
 4233SOL     OW13290   3.222   0.944   2.819  0.1283 -0.5948  0.3362
 4233SOL    HW113291   3.131   0.917   2.832 -0.0700 -0.2604 -0.3258
 4233SOL    HW213292   3.216   1.035   2.791  0.8062  0.2613  2.7713
 4234SOL     OW13293   7.292   4.131   0.306  0.7429  0.2863 -0.2782
 4234SOL    HW113294   7.227   4.166   0.367 -0.2236 -0.1665 -1.0298
 4234SOL    HW213295   7.329   4.209   0.263 -2.1522  0.4902 -2.7246
 4235SOL     OW13296   5.268   1.407   0.449  0.3087  0.0112 -0.4277
 4235SOL    HW113297   5.224   1.491   0.441 -1.3468 -0.5917  1.6213
 4235SOL    HW213298   5.325   1.403   0.372  0.7663  3.1438 -0.4024
 4236SOL     OW13299   6.825   2.650   2.425  0.2288 -0.0855 -0.5710
 4236SOL    HW113300   6.835   2.707   2.501  0.4879  0.8363 -1.2811
 4236SOL    HW213301   6.912   2.611   2.413 -0.1192 -1.2080  0.3340
 4237SOL     OW13302   6.204   4.837   1.383 -0.5406  0.4922 -0.2315
 4237SOL    HW113303   6.255   4.765   1.420  0.3756  1.3116  0.1274
 4237SOL    HW213304   6.130   4.847   1.444 -0.3214  0.2801  0.0757
 4238SOL     OW13305   2.928   3.195   0.845  0.6566 -0.0179  0.8388
 4238SOL    HW113306   2.999   3.231   0.792 -1.4386  1.3655 -1.2112
 4238SOL    HW213307   2.939   3.100   0.839  0.3123  0.0435 -2.5367
 4239SOL     OW13308   5.726   1.094   2.700  0.0160  0.3461 -0.5522
 4239SOL    HW113309   5.642   1.058   2.673 -0.0844  0.2071 -0.0748
 4239SOL    HW213310   5.781   1.091   2.621 -0.9415  2.0170 -1.3215
 4240SOL     OW13311   1.013   0.171   0.436  0.2203 -0.7800  0.1621
 4240SOL    HW113312   0.992   0.147   0.526 -2.2440  1.8624  0.4477
 4240SOL    HW213313   1.006   0.266   0.435  0.9114 -0.6810 -2.6807
 4241SOL     OW13314   6.125   1.958   3.363  0.2471 -0.3185 -0.3499
 4241SOL    HW113315   6.149   2.049   3.343 -1.1129 -0.3780 -2.6937
 4241SOL    HW213316   6.188   1.905   3.314  1.2386 -0.6901  1.2695
 4242SOL     OW13317   2.968   4.696   0.844  0.1694 -0.0493 -0.2063
 4242SOL    HW113318   2.967   4.635   0.770  1.5660  0.7717 -0.9485
 4242SOL    HW213319   2.907   4.659   0.907  1.0782 -2.2850 -0.5745
 4243SOL     OW13320   1.222   3.608   1.717  0.1178  0.6268 -0.3144
 4243SOL    HW113321   1.207   3.693   1.676  1.7532  0.4950 -1.3072
 4243SOL    HW213322   1.156   3.550   1.678 -1.5035  1.5630  0.9305
 4244SOL     OW13323   6.654   4.907   2.732 -0.4615 -0.1052 -0.1762
 4244SOL    HW113324   6.715   4.835   2.714  0.9996  1.5703 -2.3637
 4244SOL    HW213325   6.677   4.935   2.821  1.1558 -0.3189 -0.4945
 4245SOL     OW13326   6.396   0.709   1.402  0.0347  0.6177  0.7847
 4245SOL    HW113327   6.468   0.743   1.453  0.9812 -0.4493  0.2051
 4245SOL    HW213328   6.417   0.732   1.311 -1.0517  1.4895  0.7218
 4246SOL     OW13329   3.189   1.626   1.415 -0.5123  0.1454 -0.0151
 4246SOL    HW113330   3.279   1.655   1.403 -0.7486  0.5356 -0.8479
 4246SOL    HW213331   3.190   1.533   1.390 -0.2805  0.0691  0.2739
 4247SOL     OW13332   2.165   4.728   1.356 -0.5744 -0.0080 -0.0499
 4247SOL    HW113333   2.233   4.660   1.352 -1.6288 -1.1757  0.9160
 4247SOL    HW213334   2.196   4.797   1.298  1.8262 -0.1554  0.9441
 4248SOL     OW13335   2.609   2.535   0.006 -0.2665  0.0631 -0.4531
 4248SOL    HW113336   2.687   2.494  -0.032  0.4945  1.6891 -0.7696
 4248SOL    HW213337   2.543   2.529  -0.063  0.5362  1.3219 -1.3977
 4249SOL     OW13338   5.518   5.330   1.272  1.0020  0.1148 -0.4817
 4249SOL    HW113339   5.473   5.391   1.330  2.1713  0.2242  0.3460
 4249SOL    HW213340   5.483   5.244   1.295  0.5921  0.2870 -0.4599
 4250SOL     OW13341   2.216   2.079   1.758  0.3774  0.5505 -0.2843
 4250SOL    HW113342   2.178   2.102   1.673  1.0762  0.4233 -0.6358
 4250SOL    HW213343   2.250   1.990   1.745  1.4324  0.9276 -0.1972
 4251SOL     OW13344   6.541   2.977   2.355 -0.2426  0.1560 -0.1415
 4251SOL    HW113345   6.530   2.962   2.449 -0.5411 -0.9937 -0.3450
 4251SOL    HW213346   6.600   2.908   2.327  1.3664  1.5975 -0.4970
 4252SOL     OW13347   5.737   2.955   1.846  0.9736  0.1559  0.2309
 4252SOL    HW113348   5.781   3.030   1.887  1.2488  0.1653 -0.0705
 4252SOL    HW213349   5.725   2.982   1.754 -2.1586  1.3012  0.8403
 4253SOL     OW13350   2.143   0.676   1.950  0.1714  0.4212 -0.1624
 4253SOL    HW113351   2.052   0.656   1.929  0.4676 -2.9487  1.1957
 4253SOL    HW213352   2.138   0.731   2.028 -0.7977 -1.4531  1.1960
 4254SOL     OW13353   0.365   4.120   2.959  0.0558  0.2051  0.3856
 4254SOL    HW113354   0.301   4.146   2.893 -0.9104 -1.1222  0.7727
 4254SOL    HW213355   0.314   4.110   3.039  0.3797 -2.4814  0.3501
 4255SOL     OW13356   5.094   1.782   1.358  0.3362 -0.1493  0.3713
 4255SOL    HW113357   5.063   1.770   1.268  1.2203  0.1894  0.0089
 4255SOL    HW213358   5.096   1.877   1.371  2.0880 -0.1248  0.0564
 4256SOL     OW13359   4.675   0.280   1.082  0.3001 -0.6042  0.2256
 4256SOL    HW113360   4.672   0.226   1.003  0.1285 -0.8659  0.4097
 4256SOL    HW213361   4.761   0.322   1.079 -0.4414  0.9430 -1.1134
 4257SOL     OW13362   0.265   4.321   2.482  0.4517 -0.2229 -0.5432
 4257SOL    HW113363   0.279   4.304   2.389 -0.3709  0.0284 -0.7229
 4257SOL    HW213364   0.351   4.308   2.523  1.1788  1.1458 -1.5601
 4258SOL     OW13365   7.307   2.020   1.819  0.3437 -0.2494  0.0004
 4258SOL    HW113366   7.369   1.951   1.844  1.6499  0.1024 -1.9954
 4258SOL    HW213367   7.334   2.097   1.868  0.3558 -0.5495  0.4706
 4259SOL     OW13368   1.481   2.677   2.426 -0.0636  0.1502 -0.4486
 4259SOL    HW113369   1.567   2.718   2.435 -0.4435  0.7762  0.5502
 4259SOL    HW213370   1.495   2.587   2.455  0.1856  0.3595  0.1122
 4260SOL     OW13371   1.649   4.420   2.155 -0.3347 -0.0205  0.1641
 4260SOL    HW113372   1.742   4.441   2.146 -0.5844  1.6452  1.0663
 4260SOL    HW213373   1.641   4.384   2.244 -0.6696  0.7018  0.4371
 4261SOL     OW13374   4.743   0.908   1.408  0.5983 -0.1182 -0.3919
 4261SOL    HW113375   4.677   0.974   1.389  0.7803 -0.0204 -0.6921
 4261SOL    HW213376   4.816   0.957   1.446  0.4976 -0.2268 -0.0539
 4262SOL     OW13377   3.506   4.707   2.762 -0.0441  0.3342 -0.8761
 4262SOL    HW113378   3.479   4.654   2.686  0.4572 -0.6069 -0.4088
 4262SOL    HW213379   3.560   4.776   2.724 -0.4963  0.3752 -1.4720
 4263SOL     OW13380   0.395   2.335   2.427 -0.1996  0.2655 -1.3058
 4263SOL    HW113381   0.364   2.364   2.513  1.3623 -0.8723 -0.2877
 4263SOL    HW213382   0.394   2.414   2.373 -0.5433  1.1680 -0.0394
 4264SOL     OW13383   2.915   1.261   3.447 -0.4655 -0.4858 -0.1049
 4264SOL    HW113384   2.955   1.225   3.368 -0.6299  0.0877 -0.4544
 4264SOL    HW213385   2.855   1.328   3.415 -0.5288 -0.2465  0.5056
 4265SOL     OW13386   2.995   2.066   2.412  0.0050 -0.4077  0.2010
 4265SOL    HW113387   3.005   1.977   2.446 -0.8269 -1.1719 -1.3945
 4265SOL    HW213388   3.077   2.109   2.432  0.9964 -1.9941 -0.2239
 4266SOL     OW13389   5.106   1.054   2.630  0.0067  0.4353 -0.1186
 4266SOL    HW113390   5.162   1.125   2.599 -0.1982  1.9607  2.6668
 4266SOL    HW213391   5.029   1.098   2.666 -0.1874 -1.1840  1.5799
 4267SOL     OW13392   1.427   1.546   0.731 -0.0672 -0.2632 -0.6900
 4267SOL    HW113393   1.414   1.461   0.774  0.2037 -0.6661 -1.3941
 4267SOL    HW213394   1.385   1.536   0.646 -1.4894  0.8619 -0.1665
 4268SOL     OW13395   4.167   4.926   2.861  0.0817 -0.2125 -0.4819
 4268SOL    HW113396   4.084   4.933   2.909  1.4636  0.6687  1.9238
 4268SOL    HW213397   4.184   5.014   2.828  0.2937 -0.2960 -0.5976
 4269SOL     OW13398   0.747   1.245   0.703  1.0340 -0.2576 -0.1320
 4269SOL    HW113399   0.806   1.300   0.650 -2.1307  1.2976 -2.3520
 4269SOL    HW213400   0.761   1.156   0.670  2.7945 -0.1133  0.1256
 4270SOL     OW13401   7.307   2.451   1.167  0.3596 -0.2837  0.1660
 4270SOL    HW113402   7.402   2.438   1.167  0.1222 -2.4327 -0.2217
 4270SOL    HW213403   7.282   2.452   1.259  0.7913  0.8820  0.2891
 4271SOL     OW13404   5.456   4.102   2.418  0.5268  0.3490  0.4613
 4271SOL    HW113405   5.551   4.095   2.418  0.5223 -0.1078  1.6879
 4271SOL    HW213406   5.439   4.197   2.414  0.9194  0.3800 -2.8826
 4272SOL     OW13407   6.484   0.831   2.362 -0.7271 -0.0979 -0.9280
 4272SOL    HW113408   6.531   0.840   2.279  1.0587 -0.3920 -0.0154
 4272SOL    HW213409   6.460   0.920   2.387 -1.6204 -0.0483 -1.9368
 4273SOL     OW13410   6.263   1.819   1.424 -0.3863  0.2965  0.0788
 4273SOL    HW113411   6.284   1.729   1.399 -1.7788 -0.4218  1.3503
 4273SOL    HW213412   6.325   1.839   1.494  0.8043  0.8354 -1.0953
 4274SOL     OW13413   3.910   1.291   1.720 -0.6300 -0.3767  0.7721
 4274SOL    HW113414   3.841   1.238   1.760 -0.5703 -1.7090 -0.7704
 4274SOL    HW213415   3.942   1.237   1.647  0.5942  1.1029  0.1663
 4275SOL     OW13416   4.696   5.058   0.130 -0.7123  0.0736  0.2505
 4275SOL    HW113417   4.735   5.042   0.045 -0.2320  0.3477  0.4126
 4275SOL    HW213418   4.769   5.050   0.192 -0.5199  2.2329  0.4017
 4276SOL     OW13419   6.498   0.485   0.189  0.0063  0.2604 -0.7101
 4276SOL    HW113420   6.427   0.548   0.177  0.4653  1.3278  1.6292
 4276SOL    HW213421   6.454   0.403   0.212 -0.5022  0.5377 -0.6764
 4277SOL     OW13422   6.994   4.971   3.223  0.4578  0.3648 -0.2678
 4277SOL    HW113423   7.010   5.022   3.302 -0.5350  0.9053 -0.3979
 4277SOL    HW213424   6.973   4.883   3.255  1.1741  0.2891  0.0068
 4278SOL     OW13425   0.165   4.113   3.147 -0.0652  0.3257 -0.1699
 4278SOL    HW113426   0.086   4.061   3.163  0.9413 -0.7688  1.5876
 4278SOL    HW213427   0.142   4.201   3.175  0.5162 -0.7939  4.8416
 4279SOL     OW13428   0.663   2.590   3.401 -0.8865 -0.2984 -0.3251
 4279SOL    HW113429   0.736   2.596   3.464 -0.5364 -0.1836 -0.7396
 4279SOL    HW213430   0.651   2.679   3.369 -1.5555 -0.2197  0.1195
 4280SOL     OW13431   2.573   1.554   2.814 -0.0284 -0.1370 -0.5198
 4280SOL    HW113432   2.479   1.540   2.799 -0.3579 -0.3766  1.4485
 4280SOL    HW213433   2.614   1.473   2.784 -0.4844 -0.1662 -1.0907
 4281SOL     OW13434   4.423   2.812   0.256  0.1328  0.0293 -0.0815
 4281SOL    HW113435   4.479   2.851   0.189  1.5703  0.0399  1.0843
 4281SOL    HW213436   4.437   2.867   0.334 -0.5081 -0.7399  0.5929
 4282SOL     OW13437   5.741   3.284   1.968 -0.5213 -0.5536 -0.4671
 4282SOL    HW113438   5.820   3.230   1.964 -1.1606 -1.4564 -1.2790
 4282SOL    HW213439   5.755   3.353   1.904 -0.1404 -0.3684 -0.1830
 4283SOL     OW13440   6.459   5.138   2.120  1.0896 -0.0582 -0.3169
 4283SOL    HW113441   6.414   5.072   2.066  3.1627 -2.4909  0.6881
 4283SOL    HW213442   6.515   5.186   2.058 -0.8932  1.2795 -1.1605
 4284SOL     OW13443   2.342   0.790   1.529 -0.4894 -0.5781 -0.0535
 4284SOL    HW113444   2.330   0.719   1.592 -3.2009  0.8829  1.2795
 4284SOL    HW213445   2.283   0.768   1.456 -1.2808  0.1887  0.3290
 4285SOL     OW13446   3.019   5.178   2.564  0.0639 -0.6741 -0.0127
 4285SOL    HW113447   3.039   5.148   2.653  1.7213  1.4173  0.3901
 4285SOL    HW213448   3.001   5.271   2.574 -0.1411 -0.4926 -1.8285
 4286SOL     OW13449   4.183   1.500   0.175 -0.5123  0.4044 -0.8560
 4286SOL    HW113450   4.125   1.476   0.102 -0.7878 -0.3925 -0.3865
 4286SOL    HW213451   4.126   1.548   0.235 -0.6835 -0.3395 -0.4159
 4287SOL     OW13452   7.316   2.705   2.675  0.1790  0.0419  0.3615
 4287SOL    HW113453   7.396   2.746   2.643  0.3847 -0.0339  0.7718
 4287SOL    HW213454   7.343   2.656   2.753 -0.2338 -0.1220  0.4077
 4288SOL     OW13455   0.742   1.133   2.410 -0.0108  0.2157  0.0722
 4288SOL    HW113456   0.677   1.076   2.370 -0.4271  0.5925  0.2069
 4288SOL    HW213457   0.803   1.153   2.339  1.7757 -2.6191  0.6189
 4289SOL     OW13458   1.182   0.798   0.808  0.3133 -0.0988  0.2118
 4289SOL    HW113459   1.169   0.876   0.863  0.9068  0.4014 -0.3402
 4289SOL    HW213460   1.272   0.805   0.778  0.3407 -0.9661  0.0840
 4290SOL     OW13461   7.262   1.915   2.836 -0.4013 -0.6916  0.3844
 4290SOL    HW113462   7.193   1.876   2.890 -1.2334 -1.6724 -1.2995
 4290SOL    HW213463   7.220   1.987   2.790 -0.0207 -0.5937  0.1803
 4291SOL     OW13464   4.937   3.202   0.530  0.0112  0.2877 -0.5410
 4291SOL    HW113465   4.928   3.246   0.614  0.6849 -0.8799  0.1675
 4291SOL    HW213466   4.903   3.265   0.466  1.5200  2.0646  0.3335
 4292SOL     OW13467   1.971   4.978   0.832 -0.7031  0.0367  0.5820
 4292SOL    HW113468   2.049   4.955   0.884 -0.5803  0.1332  0.4409
 4292SOL    HW213469   1.917   4.899   0.835  0.0023 -0.5109 -0.4271
 4293SOL     OW13470   5.194   4.265   1.625  0.3322 -0.2650  0.1182
 4293SOL    HW113471   5.257   4.263   1.697 -1.3931  0.9566  1.7762
 4293SOL    HW213472   5.117   4.308   1.662 -0.5155  0.7558 -2.5968
 4294SOL     OW13473   6.254   3.574   0.842 -0.7210  0.7387  0.4919
 4294SOL    HW113474   6.310   3.652   0.844  0.6159 -0.1581 -0.4875
 4294SOL    HW213475   6.252   3.545   0.933  0.7521  0.5837  0.5051
 4295SOL     OW13476   4.875   5.253   2.131  0.7561 -0.4245 -0.1907
 4295SOL    HW113477   4.873   5.266   2.226 -0.2741 -2.3999  0.1109
 4295SOL    HW213478   4.968   5.259   2.108  0.8200  2.6828  0.4553
 4296SOL     OW13479   3.070   2.857   2.825  0.9043 -0.1962 -0.4345
 4296SOL    HW113480   3.056   2.861   2.730  2.4268  0.9754 -0.6605
 4296SOL    HW213481   2.985   2.834   2.861  0.2680 -0.5687 -2.0832
 4297SOL     OW13482   7.035   3.936   1.693 -0.7148  0.4724 -0.2213
 4297SOL    HW113483   7.069   3.955   1.780 -2.6251  1.8368  0.2805
 4297SOL    HW213484   7.060   3.845   1.677  2.0985  1.0188  0.5217
 4298SOL     OW13485   1.470   3.962   3.373  0.1781 -0.3850 -0.4047
 4298SOL    HW113486   1.440   4.053   3.368  1.2121 -0.0375 -0.3876
 4298SOL    HW213487   1.402   3.918   3.425 -1.0248  0.0570 -1.5368
 4299SOL     OW13488   0.115   0.936   3.207 -0.6426  0.1416 -0.2692
 4299SOL    HW113489   0.150   1.025   3.197  0.8927 -0.2912  0.8544
 4299SOL    HW213490   0.186   0.879   3.178 -0.9110 -0.7459  0.7663
 4300SOL     OW13491   3.635   4.519   0.872  0.1819  0.2941 -0.2143
 4300SOL    HW113492   3.559   4.562   0.911  1.8604  0.4144  3.2704
 4300SOL    HW213493   3.667   4.583   0.808 -1.6910  0.8959 -0.6201
 4301SOL     OW13494   0.186   2.255   0.014  0.0397  0.0458 -0.2003
 4301SOL    HW113495   0.233   2.265  -0.069  1.6392  0.1737  0.6839
 4301SOL    HW213496   0.229   2.182   0.057  1.5252  2.0705  1.9757
 4302SOL     OW13497   4.376   4.514   2.137  0.2282  0.4477  0.4230
 4302SOL    HW113498   4.457   4.564   2.129  1.0694 -0.7751  0.9667
 4302SOL    HW213499   4.369   4.495   2.231 -0.0909 -0.3851  0.2394
 4303SOL     OW13500   5.427   1.068   3.330  0.7265  0.1810  0.4277
 4303SOL    HW113501   5.489   1.017   3.279  2.0939  0.1902  2.0176
 4303SOL    HW213502   5.341   1.044   3.294  1.4611 -1.7789 -0.1110
 4304SOL     OW13503   6.287   0.251   2.914 -0.4536 -0.2127  0.4552
 4304SOL    HW113504   6.263   0.314   2.847 -1.1470 -1.0484 -0.1134
 4304SOL    HW213505   6.370   0.213   2.883 -1.1155 -1.0839 -0.3055
 4305SOL     OW13506   0.651   4.507   0.028  0.1890  0.0606 -0.3683
 4305SOL    HW113507   0.579   4.475  -0.026  0.2938 -1.2371  0.2361
 4305SOL    HW213508   0.729   4.466  -0.010  0.1959 -1.3581  1.1193
 4306SOL     OW13509   1.182   2.047   1.833  0.2603  0.0920 -0.3480
 4306SOL    HW113510   1.121   2.089   1.893  0.2132 -0.1385 -0.2326
 4306SOL    HW213511   1.218   1.974   1.883  2.5975  1.7100  0.5600
 4307SOL     OW13512   3.489   3.757   1.495  0.3342  0.2021 -0.0708
 4307SOL    HW113513   3.483   3.684   1.557 -0.0315 -0.4041 -0.8213
 4307SOL    HW213514   3.515   3.717   1.413  2.8875  1.2436  0.1358
 4308SOL     OW13515   3.231   2.689   2.507  0.0926 -0.4125 -0.2524
 4308SOL    HW113516   3.307   2.679   2.565  0.5818 -1.5486 -1.0571
 4308SOL    HW213517   3.228   2.608   2.457 -0.5059  0.4092 -1.6041
 4309SOL     OW13518   4.399   4.802   2.817 -0.1047  1.0061 -0.1156
 4309SOL    HW113519   4.331   4.869   2.824  0.4058  1.5170  0.1401
 4309SOL    HW213520   4.355   4.726   2.781 -0.4302  1.8857 -1.6715
 4310SOL     OW13521   0.270   0.226   1.733 -0.8054 -0.2364 -0.3038
 4310SOL    HW113522   0.289   0.244   1.825 -0.7903 -0.3371 -0.2872
 4310SOL    HW213523   0.194   0.282   1.713 -0.9316 -0.3605 -0.1758
 4311SOL     OW13524   0.034   0.174   1.160 -0.2281 -0.2875  0.4929
 4311SOL    HW113525   0.080   0.112   1.217 -0.7776 -0.2700  0.9593
 4311SOL    HW213526   0.099   0.196   1.092  1.0780  1.1010  2.1006
 4312SOL     OW13527   1.406   1.669   1.587 -0.2449 -0.4394  0.4452
 4312SOL    HW113528   1.438   1.759   1.592  1.0240 -0.7817 -0.9430
 4312SOL    HW213529   1.445   1.625   1.662  2.0685 -0.6619 -0.7915
 4313SOL     OW13530   5.263   1.852   2.643  0.4121 -0.2599 -0.0892
 4313SOL    HW113531   5.353   1.882   2.634  0.1375  0.5248 -0.2869
 4313SOL    HW213532   5.220   1.878   2.562 -0.4593  1.0723  0.7513
 4314SOL     OW13533   2.118   3.400   3.123 -0.3472  0.7042 -0.1413
 4314SOL    HW113534   2.137   3.488   3.091  0.8628  0.1765 -0.9466
 4314SOL    HW213535   2.059   3.363   3.058  0.9559  0.1477 -1.0603
 4315SOL     OW13536   5.887   3.394   2.925  0.0614  0.1325 -0.2841
 4315SOL    HW113537   5.909   3.348   3.006  1.8218 -0.1408 -0.8817
 4315SOL    HW213538   5.829   3.465   2.953  0.8268  0.1920  1.2363
 4316SOL     OW13539   2.904   4.257   0.472 -0.2230 -0.1198 -0.1313
 4316SOL    HW113540   2.909   4.211   0.556 -1.1845 -0.5162 -0.2774
 4316SOL    HW213541   2.835   4.212   0.424  1.4103 -0.9729 -1.8107
 4317SOL     OW13542   4.872   1.256   2.492 -0.8861 -0.1220 -0.4835
 4317SOL    HW113543   4.794   1.200   2.487  0.1088 -1.9129  1.7725
 4317SOL    HW213544   4.870   1.291   2.581 -0.1301  1.4262 -1.0483
 4318SOL     OW13545   6.604   3.050   2.038  0.0101 -0.0581  0.5057
 4318SOL    HW113546   6.540   3.119   2.049 -0.3176 -0.0772 -1.0859
 4318SOL    HW213547   6.605   3.004   2.122 -2.6185 -0.5205  0.3563
 4319SOL     OW13548   5.209   3.072   0.087 -0.1927 -0.0317  0.1529
 4319SOL    HW113549   5.293   3.112   0.112  0.0715 -0.2009 -0.4454
 4319SOL    HW213550   5.143   3.134   0.119  0.1033 -0.4882  1.7212
 4320SOL     OW13551   2.312   3.347   1.890  0.2526  0.0092 -0.1388
 4320SOL    HW113552   2.406   3.336   1.905 -0.0391 -1.7174  0.6645
 4320SOL    HW213553   2.290   3.281   1.824 -0.8088 -1.5020  1.5922
 4321SOL     OW13554   6.514   3.563   0.119 -1.2791  0.2495 -0.0988
 4321SOL    HW113555   6.503   3.508   0.197 -0.2245  0.7011  0.4016
 4321SOL    HW213556   6.604   3.546   0.091 -0.6236  2.2982  0.5746
 4322SOL     OW13557   4.735   3.915   2.850 -0.0808  0.2965  0.2786
 4322SOL    HW113558   4.804   3.975   2.880  0.9195  0.9616 -2.9360
 4322SOL    HW213559   4.750   3.835   2.900  1.7600  1.0765  1.1041
 4323SOL     OW13560   0.481   0.514   0.698 -0.4267 -0.3213 -0.8376
 4323SOL    HW113561   0.573   0.487   0.698 -0.2301  0.2651  0.4187
 4323SOL    HW213562   0.482   0.603   0.663 -0.5306 -0.3832 -0.9954
 4324SOL     OW13563   4.740   2.489   0.088  0.0129 -0.4762  0.4064
 4324SOL    HW113564   4.682   2.419   0.118 -0.4757 -0.2962 -0.1070
 4324SOL    HW213565   4.681   2.556   0.053  0.4814  0.1752  0.8498
 4325SOL     OW13566   6.822   4.803   2.089  0.5302 -0.0529  0.4930
 4325SOL    HW113567   6.914   4.793   2.062  0.5230 -0.8001  0.7075
 4325SOL    HW213568   6.805   4.725   2.142 -0.2734  0.0040  0.3267
 4326SOL     OW13569   5.591   0.479   1.048  0.4933 -0.2339  0.1701
 4326SOL    HW113570   5.558   0.502   0.961  0.5476 -0.0761  0.1909
 4326SOL    HW213571   5.660   0.543   1.065 -0.6709  0.8466  1.0473
 4327SOL     OW13572   5.362   4.649   2.598 -0.8976 -0.2956  0.1017
 4327SOL    HW113573   5.323   4.622   2.514  1.2660 -0.2070 -0.9857
 4327SOL    HW213574   5.341   4.742   2.604  0.2575  0.0794 -1.1544
 4328SOL     OW13575   1.310   2.771   2.844 -0.3935 -0.1535 -0.0375
 4328SOL    HW113576   1.296   2.676   2.842  0.7886 -0.3881  1.2335
 4328SOL    HW213577   1.276   2.802   2.760 -4.5340 -1.1281  1.0332
 4329SOL     OW13578   0.861   4.077   0.240 -0.5452  0.4175 -0.5329
 4329SOL    HW113579   0.932   4.013   0.244  0.3632  1.3595 -1.1889
 4329SOL    HW213580   0.882   4.132   0.164 -1.9620  0.7354 -0.7239
 4330SOL     OW13581   5.667   3.266   2.850  0.0005  0.1572 -0.3277
 4330SOL    HW113582   5.737   3.329   2.867  1.4820 -1.6421  0.6003
 4330SOL    HW213583   5.702   3.182   2.880 -1.9828 -1.0935 -1.2764
 4331SOL     OW13584   1.904   1.275   1.471 -0.2231  0.3522 -0.4772
 4331SOL    HW113585   1.950   1.325   1.403 -1.3008 -0.4574 -1.8759
 4331SOL    HW213586   1.814   1.267   1.438 -0.5213 -0.9576  0.5587
 4332SOL     OW13587   0.262   1.531   1.465 -0.9606 -0.0473 -0.1773
 4332SOL    HW113588   0.337   1.490   1.422  0.9845  2.5913  0.4137
 4332SOL    HW213589   0.266   1.499   1.555 -1.7014 -1.3252 -0.5778
 4333SOL     OW13590   0.532   2.125   3.420 -0.1539  0.0711  0.4251
 4333SOL    HW113591   0.454   2.086   3.457  0.3112 -3.4881 -1.8472
 4333SOL    HW213592   0.526   2.107   3.326  2.6792  0.9806 -0.0444
 4334SOL     OW13593   2.523   4.465   1.574  0.0164  0.0737  0.1093
 4334SOL    HW113594   2.488   4.376   1.581 -0.5330  0.4093  2.5426
 4334SOL    HW213595   2.495   4.495   1.488 -0.7110 -1.7250 -0.3207
 4335SOL     OW13596   6.562   5.127   2.581  0.0957 -0.1002 -0.1092
 4335SOL    HW113597   6.628   5.120   2.512 -0.4545 -0.9255 -0.5675
 4335SOL    HW213598   6.578   5.050   2.637  1.1676  1.0652  1.2824
 4336SOL     OW13599   3.486   0.413   2.404 -0.9583  0.2939 -0.1601
 4336SOL    HW113600   3.550   0.377   2.342 -0.0398 -0.7286  1.3195
 4336SOL    HW213601   3.406   0.423   2.353  0.1131  0.7605 -1.8426
 4337SOL     OW13602   3.796   1.545   1.016  0.1996 -0.4837 -0.2733
 4337SOL    HW113603   3.775   1.625   0.969  0.0655 -0.9453 -1.0136
 4337SOL    HW213604   3.887   1.527   0.993  0.8387  0.4176  1.3305
 4338SOL     OW13605   2.914   0.655   2.428  0.3059  0.2787 -0.2437
 4338SOL    HW113606   3.009   0.644   2.417  0.6985 -1.5779  3.3498
 4338SOL    HW213607   2.878   0.568   2.409 -0.6949  0.9396 -1.4474
 4339SOL     OW13608   3.572   1.006   0.276  0.1020  0.3454 -0.1456
 4339SOL    HW113609   3.509   0.967   0.337  0.1397 -1.5647 -1.2337
 4339SOL    HW213610   3.592   1.092   0.313  0.0214 -0.6542  2.4525
 4340SOL     OW13611   1.933   2.337   2.457  0.4802 -0.2001  0.5538
 4340SOL    HW113612   1.997   2.278   2.497 -0.5598 -0.3728  2.0340
 4340SOL    HW213613   1.883   2.281   2.397  0.9834 -0.3133  0.2390
 4341SOL     OW13614   5.384   4.647   1.912 -0.2465 -0.0889  0.6091
 4341SOL    HW113615   5.378   4.717   1.977 -1.2748 -0.4421  0.9182
 4341SOL    HW213616   5.454   4.590   1.945  0.2878  0.5438  0.5909
 4342SOL     OW13617   5.442   4.488   3.044 -0.3526  0.7167 -0.2017
 4342SOL    HW113618   5.502   4.421   3.012 -2.4129 -0.3977 -1.9479
 4342SOL    HW213619   5.469   4.568   2.997 -1.0227 -0.0794 -2.0238
 4343SOL     OW13620   5.868   2.247   0.347  0.3799 -0.2203 -0.0184
 4343SOL    HW113621   5.806   2.261   0.275  1.5514  0.7805 -0.8672
 4343SOL    HW213622   5.945   2.298   0.322  1.2394 -0.7853  1.4120
 4344SOL     OW13623   5.832   1.533   0.481 -0.4031  0.4967  0.4981
 4344SOL    HW113624   5.842   1.465   0.415 -1.3675 -0.6899  1.5242
 4344SOL    HW213625   5.908   1.590   0.469 -0.1721 -0.1032 -1.1312
 4345SOL     OW13626   4.644   0.805   3.443  0.3728  0.0810 -0.1489
 4345SOL    HW113627   4.628   0.779   3.352  0.2652 -0.4626  0.0226
 4345SOL    HW213628   4.636   0.900   3.442 -1.2401 -0.0310 -0.4052
 4346SOL     OW13629   6.149   0.794   1.874  0.8600  0.2157 -0.1792
 4346SOL    HW113630   6.176   0.816   1.963  0.8659  0.4500 -0.2389
 4346SOL    HW213631   6.208   0.844   1.818 -0.0052  1.1252 -0.3121
 4347SOL     OW13632   5.436   5.330   0.512  0.3648 -0.0543 -0.1110
 4347SOL    HW113633   5.364   5.295   0.458 -0.9305  0.4718  1.2117
 4347SOL    HW213634   5.488   5.253   0.533  0.0074 -0.5075 -0.8037
 4348SOL     OW13635   2.037   0.139   2.931 -0.3975  0.8036 -0.1538
 4348SOL    HW113636   2.120   0.145   2.977 -1.4520  0.3520  1.9137
 4348SOL    HW213637   2.059   0.158   2.840  1.8910  1.0422  0.3864
 4349SOL     OW13638   4.142   2.957   2.658  0.0235  0.1986 -0.4589
 4349SOL    HW113639   4.150   3.014   2.734  1.0037 -1.4031  0.7089
 4349SOL    HW213640   4.224   2.968   2.610  1.3266 -1.9318  1.0942
 4350SOL     OW13641   3.040   0.358   1.841  0.0318 -0.4172 -0.0365
 4350SOL    HW113642   3.048   0.316   1.926  1.2812 -0.2454 -0.0570
 4350SOL    HW213643   3.010   0.289   1.782 -0.0201 -0.7391  0.3667
 4351SOL     OW13644   1.100   1.686   0.971  0.4489  0.5864  0.3716
 4351SOL    HW113645   1.170   1.735   0.927  1.0247  0.5736  1.2579
 4351SOL    HW213646   1.119   1.594   0.950  0.2654  0.6292  0.0024
 4352SOL     OW13647   6.686   3.115   3.184  0.3702  0.5306 -0.3264
 4352SOL    HW113648   6.590   3.118   3.192  0.4237  3.3909  0.6667
 4352SOL    HW213649   6.704   3.158   3.100  0.7762  0.2277 -0.3947
 4353SOL     OW13650   5.117   2.927   1.930 -0.0562  0.3448  0.0751
 4353SOL    HW113651   5.173   3.004   1.945  1.5298 -0.7676  0.0977
 4353SOL    HW213652   5.102   2.926   1.835  0.4352  0.3406 -0.0041
 4354SOL     OW13653   3.924   0.689   2.749 -0.5894  0.1401  0.9152
 4354SOL    HW113654   3.855   0.632   2.715 -0.2774  1.0773 -1.5111
 4354SOL    HW213655   4.000   0.670   2.695  0.3165  0.9445  1.8569
 4355SOL     OW13656   3.668   4.905   3.086  0.2699  0.4411  0.4323
 4355SOL    HW113657   3.704   4.816   3.091 -0.8172 -0.0915 -0.5808
 4355SOL    HW213658   3.616   4.914   3.165 -1.4943 -0.7308 -0.5352
 4356SOL     OW13659   0.072   0.898   0.626  0.0272 -0.3572  0.1695
 4356SOL    HW113660   0.102   0.901   0.535  2.3965  0.0344  0.9053
 4356SOL    HW213661   0.124   0.965   0.671 -1.3022 -0.3386  1.7728
 4357SOL     OW13662   4.861   1.396   2.982 -0.2384  0.2587  0.7683
 4357SOL    HW113663   4.836   1.486   2.961 -1.7011 -0.5834 -1.5004
 4357SOL    HW213664   4.919   1.404   3.058 -0.3913  3.0808  0.6895
 4358SOL     OW13665   4.723   1.171   3.131  0.1655  0.1517 -0.2988
 4358SOL    HW113666   4.670   1.135   3.060 -1.6380 -0.0812  1.1199
 4358SOL    HW213667   4.781   1.234   3.087 -0.2868 -0.6127 -2.0826
 4359SOL     OW13668   6.612   1.807   0.285  0.2046 -0.7746 -0.2068
 4359SOL    HW113669   6.588   1.897   0.264  0.9289 -0.3967  0.5035
 4359SOL    HW213670   6.592   1.758   0.206  1.8779  0.3934 -1.4397
 4360SOL     OW13671   5.286   4.817   3.194 -0.1546 -0.1612 -0.1722
 4360SOL    HW113672   5.272   4.785   3.105 -0.0405 -0.2039 -0.1748
 4360SOL    HW213673   5.199   4.816   3.234 -0.4279  1.0854 -0.6902
 4361SOL     OW13674   6.842   1.447   2.481 -0.3656 -0.2327  0.0321
 4361SOL    HW113675   6.826   1.400   2.563  0.9159  0.0199  0.4536
 4361SOL    HW213676   6.810   1.536   2.497 -0.8991 -0.4103 -0.0423
 4362SOL     OW13677   1.096   3.906   0.047  0.4051 -0.3376  0.4833
 4362SOL    HW113678   1.182   3.865   0.036  1.0706  0.5021  2.2975
 4362SOL    HW213679   1.036   3.832   0.054  1.0567 -0.9462 -0.1074
 4363SOL     OW13680   0.165   2.548   0.012  0.0906 -0.2893 -0.1128
 4363SOL    HW113681   0.246   2.570   0.058 -0.0701  0.6423 -0.2539
 4363SOL    HW213682   0.103   2.615   0.039 -0.3692 -0.4540 -0.7300
 4364SOL     OW13683   6.168   2.618   0.103 -0.1178 -0.2229  0.3075
 4364SOL    HW113684   6.117   2.655   0.031 -1.7304 -0.0678  1.4694
 4364SOL    HW213685   6.112   2.629   0.180  0.5229 -2.5562  1.1874
 4365SOL     OW13686   6.523   4.656   3.422 -0.4404  0.1793  0.7401
 4365SOL    HW113687   6.469   4.713   3.369 -0.5632 -0.6652 -0.0580
 4365SOL    HW213688   6.567   4.598   3.360  0.4674  0.0589  1.4529
 4366SOL     OW13689   4.963   0.391   1.233  0.2943 -0.2226 -0.4103
 4366SOL    HW113690   5.046   0.424   1.199  0.7799  1.4116  2.1213
 4366SOL    HW213691   4.984   0.305   1.268  0.7371 -0.1355 -0.4542
 4367SOL     OW13692   0.362   3.902   2.295  0.6583  0.4253  0.8890
 4367SOL    HW113693   0.321   3.816   2.290 -1.0736  1.2230  0.7322
 4367SOL    HW213694   0.289   3.963   2.304  1.5661  2.1735 -2.1828
 4368SOL     OW13695   6.458   3.194   0.041  0.5452  0.0794  0.4025
 4368SOL    HW113696   6.540   3.225   0.004 -0.4543  2.7178  0.1543
 4368SOL    HW213697   6.480   3.164   0.129  1.8531  0.0974  0.0943
 4369SOL     OW13698   0.208   2.161   3.229  0.4335 -0.1662  0.0903
 4369SOL    HW113699   0.167   2.103   3.164  0.1976  3.3478 -3.2638
 4369SOL    HW213700   0.301   2.161   3.205  0.1662  2.0935 -1.2731
 4370SOL     OW13701   5.912   2.815   0.637 -0.3326  0.3670 -0.4940
 4370SOL    HW113702   5.958   2.747   0.588 -0.3134  0.0345 -0.0264
 4370SOL    HW213703   5.901   2.778   0.725 -2.3987 -0.0025 -0.8520
 4371SOL     OW13704   2.369   1.896   2.313  0.5880 -0.1703 -0.2789
 4371SOL    HW113705   2.351   1.988   2.336  0.2871 -0.3133  0.0722
 4371SOL    HW213706   2.455   1.878   2.350 -0.3374 -0.7163  1.7295
 4372SOL     OW13707   3.601   3.999   2.750  0.2587  0.1989  0.5458
 4372SOL    HW113708   3.571   4.087   2.774 -0.5367 -0.0680  0.5743
 4372SOL    HW213709   3.660   4.013   2.675  0.7077  0.8092  1.0034
 4373SOL     OW13710   5.123   2.846   3.214  0.3098 -0.6244 -0.6917
 4373SOL    HW113711   5.115   2.830   3.308 -1.1935 -1.4249 -0.9294
 4373SOL    HW213712   5.121   2.941   3.205 -0.6245 -0.5729  0.0088
 4374SOL     OW13713   0.024   2.428   2.762  0.2428 -0.2289 -0.6834
 4374SOL    HW113714   0.108   2.438   2.718 -0.4045 -0.4062 -2.0297
 4374SOL    HW213715  -0.037   2.480   2.709 -0.6625 -0.8323 -0.2693
 4375SOL     OW13716   5.933   1.284   1.188  0.4051  0.0336 -0.0009
 4375SOL    HW113717   5.882   1.261   1.266  0.8383 -0.3058  0.1871
 4375SOL    HW213718   6.004   1.219   1.186  1.4673  1.1440  0.3523
 4376SOL     OW13719   2.643   1.238   1.261  0.4275  0.3923 -0.1310
 4376SOL    HW113720   2.615   1.148   1.276  0.5719 -0.0440 -2.2453
 4376SOL    HW213721   2.562   1.285   1.240  0.7138  0.0578 -2.0715
 4377SOL     OW13722   4.176   1.615   1.676  0.2462  0.5443  0.1487
 4377SOL    HW113723   4.094   1.647   1.715 -1.1108 -1.9543 -0.4192
 4377SOL    HW213724   4.196   1.678   1.607 -3.4929 -0.7029 -2.4012
 4378SOL     OW13725   5.775   0.648   0.662  0.3660 -0.5436 -0.2826
 4378SOL    HW113726   5.758   0.689   0.577  1.5385  0.1107 -0.2269
 4378SOL    HW213727   5.690   0.645   0.705  0.1180  1.1503 -0.6001
 4379SOL     OW13728   5.426   4.365   1.777  0.4739  0.4770  0.2890
 4379SOL    HW113729   5.473   4.414   1.845  1.7867 -1.0754  0.5619
 4379SOL    HW213730   5.470   4.390   1.695  1.0188 -0.0664  0.4065
 4380SOL     OW13731   3.386   4.054   0.260  0.0610  0.2373 -0.6935
 4380SOL    HW113732   3.314   4.003   0.296  0.8855 -0.5501 -0.1064
 4380SOL    HW213733   3.461   4.032   0.315  0.3216  2.5836 -0.0090
 4381SOL     OW13734   5.443   3.233   0.103  0.0541  0.2922 -0.1280
 4381SOL    HW113735   5.512   3.238   0.168  0.5612  0.5346 -0.6789
 4381SOL    HW213736   5.420   3.324   0.085 -0.4203  0.2129  0.0649
 4382SOL     OW13737   0.377   1.011   2.455 -0.5274  0.0526  0.4730
 4382SOL    HW113738   0.469   1.029   2.435 -0.5074 -0.4902  0.0745
 4382SOL    HW213739   0.379   0.934   2.512 -0.6979  0.4594  1.0380
 4383SOL     OW13740   5.393   2.184   0.517  0.5257  0.1043  0.0506
 4383SOL    HW113741   5.316   2.129   0.501  1.5438 -1.1963 -0.4917
 4383SOL    HW213742   5.451   2.167   0.443  1.7760  0.2919  0.9597
 4384SOL     OW13743   6.596   3.820   1.428  0.0635 -0.4617  0.8344
 4384SOL    HW113744   6.675   3.779   1.391 -0.6546 -1.8439  0.7820
 4384SOL    HW213745   6.569   3.882   1.361  0.7310 -0.4589  0.5512
 4385SOL     OW13746   4.800   4.984   3.056  0.1736  0.3395  0.3884
 4385SOL    HW113747   4.750   5.055   3.016  1.2450  1.0034  0.1805
 4385SOL    HW213748   4.738   4.911   3.064 -0.9744  1.3238  0.6966
 4386SOL     OW13749   5.993   4.100   0.611  0.1208  0.1008  0.1006
 4386SOL    HW113750   6.030   4.013   0.625  0.1200 -0.3011 -2.1419
 4386SOL    HW213751   5.966   4.101   0.519 -2.1939  1.6048  0.7107
 4387SOL     OW13752   6.042   3.550   1.540 -0.2193  0.2226 -0.1421
 4387SOL    HW113753   6.064   3.612   1.610  0.5813 -1.5630  1.2699
 4387SOL    HW213754   5.999   3.477   1.585 -0.7827 -0.4491 -1.6880
 4388SOL     OW13755   0.120   4.675   1.361  0.1299 -0.3126 -0.3353
 4388SOL    HW113756   0.057   4.729   1.315  0.2754  0.3752  0.2578
 4388SOL    HW213757   0.204   4.719   1.345  0.0036  0.8228  1.8139
 4389SOL     OW13758   4.118   2.084   3.358 -0.0185 -0.2311 -0.2715
 4389SOL    HW113759   4.072   2.003   3.379 -0.1028  0.1261  1.0222
 4389SOL    HW213760   4.122   2.131   3.441  0.0500  1.0830 -0.9943
 4390SOL     OW13761   0.044   3.554   1.629  0.0072 -0.4072  0.3167
 4390SOL    HW113762  -0.023   3.493   1.661  0.5665 -0.5487  1.2542
 4390SOL    HW213763   0.078   3.595   1.708  0.0034  0.7567 -0.2609
 4391SOL     OW13764   0.838   0.258   3.114 -0.5289 -0.4042 -0.2429
 4391SOL    HW113765   0.867   0.254   3.023 -1.8923 -0.5430 -0.6944
 4391SOL    HW213766   0.910   0.302   3.161 -0.7334  1.7121 -1.7863
 4392SOL     OW13767   0.091   1.062   2.825  0.4055 -0.3231 -0.2768
 4392SOL    HW113768   0.099   1.138   2.883  2.3045 -0.0312 -0.8665
 4392SOL    HW213769   0.115   1.096   2.739  0.1569 -1.3554 -0.7645
 4393SOL     OW13770   5.610   0.645   3.411  0.5503  0.4690  0.5368
 4393SOL    HW113771   5.571   0.660   3.498 -1.0446  1.5157 -0.3073
 4393SOL    HW213772   5.543   0.596   3.363  0.7397  1.2725 -0.5895
 4394SOL     OW13773   3.086   3.778   1.083 -0.5903 -0.8161  0.6341
 4394SOL    HW113774   3.113   3.842   1.017 -1.3630 -0.9916  0.1407
 4394SOL    HW213775   3.166   3.760   1.133  0.7412 -2.7451 -1.9507
 4395SOL     OW13776   3.436   5.268   0.759  0.0695  0.1125  0.5319
 4395SOL    HW113777   3.513   5.307   0.799  0.3072 -0.3925  0.5758
 4395SOL    HW213778   3.471   5.211   0.690 -0.2581 -0.2053  0.6242
 4396SOL     OW13779   4.911   0.737   0.816  0.4096 -0.3057 -0.0215
 4396SOL    HW113780   4.908   0.709   0.908 -1.1280 -0.0526  0.0210
 4396SOL    HW213781   4.980   0.804   0.814 -0.2616  0.4567  1.1759
 4397SOL     OW13782   1.090   4.214   2.451  0.1627 -0.5474 -0.5214
 4397SOL    HW113783   1.111   4.217   2.544  0.1261 -0.0546 -0.5237
 4397SOL    HW213784   1.084   4.121   2.430 -1.4867 -0.6722  0.3544
 4398SOL     OW13785   5.623   4.577   2.663 -0.3388 -0.2993  0.2904
 4398SOL    HW113786   5.634   4.592   2.757 -1.3303 -1.2414  0.5671
 4398SOL    HW213787   5.531   4.594   2.647  0.6007  5.0564 -1.5409
 4399SOL     OW13788   6.123   2.956   2.404 -0.3206 -0.0246  0.5236
 4399SOL    HW113789   6.043   3.004   2.382  0.5403  1.9406  1.4390
 4399SOL    HW213790   6.172   2.952   2.322 -0.2594  0.9882  0.5020
 4400SOL     OW13791   1.154   1.540   2.551  0.2776 -0.1828  0.1304
 4400SOL    HW113792   1.165   1.479   2.478  0.8333  0.8096 -0.6395
 4400SOL    HW213793   1.242   1.549   2.588  0.2829  0.4769 -0.0330
 4401SOL     OW13794   4.554   4.789   0.820  0.7052  0.8175 -0.4481
 4401SOL    HW113795   4.592   4.772   0.907 -0.1819  1.1255  0.0116
 4401SOL    HW213796   4.465   4.755   0.826  0.7583  0.5071 -1.3695
 4402SOL     OW13797   6.330   3.846   0.392 -0.4535  0.4685 -0.0543
 4402SOL    HW113798   6.270   3.878   0.324 -1.3324 -2.2886 -0.7145
 4402SOL    HW213799   6.273   3.800   0.454  0.6376  0.7855  1.2252
 4403SOL     OW13800   2.617   3.346   1.842 -0.1396 -0.2352  0.1352
 4403SOL    HW113801   2.637   3.316   1.753 -1.4624  0.8994 -0.5829
 4403SOL    HW213802   2.666   3.428   1.851 -1.4057  0.5813 -0.2305
 4404SOL     OW13803   6.210   3.877   3.036 -0.1272  0.2462  0.0557
 4404SOL    HW113804   6.160   3.805   2.997 -0.0631  1.0478 -1.5772
 4404SOL    HW213805   6.299   3.843   3.045  0.1582  0.4362 -1.7273
 4405SOL     OW13806   7.268   4.811   0.944 -0.1414  0.4211  0.2991
 4405SOL    HW113807   7.243   4.722   0.918  0.6445  0.2635  0.0599
 4405SOL    HW213808   7.194   4.866   0.916  0.0066  0.0484 -0.8887
 4406SOL     OW13809   4.541   3.011   2.830  0.5972  0.5924 -0.2195
 4406SOL    HW113810   4.530   2.919   2.806  0.9508  0.7887 -1.1892
 4406SOL    HW213811   4.452   3.046   2.830  0.5978  0.6433 -1.5583
 4407SOL     OW13812   1.894   5.302   2.411 -0.3574 -1.0956  0.1871
 4407SOL    HW113813   1.819   5.245   2.428 -0.1500 -1.5136 -0.2845
 4407SOL    HW213814   1.899   5.308   2.316  0.6562 -1.6791  0.1840
 4408SOL     OW13815   5.991   1.678   3.395  0.3361 -0.0606 -0.0577
 4408SOL    HW113816   5.940   1.690   3.475  0.3812 -1.5629  0.2126
 4408SOL    HW213817   6.024   1.766   3.375 -0.5045  0.5220  0.9982
 4409SOL     OW13818   2.015   2.680   1.974  0.2124  0.5441  0.4206
 4409SOL    HW113819   2.097   2.644   1.942 -1.2878 -2.0443 -0.8743
 4409SOL    HW213820   1.994   2.627   2.051 -1.5554 -0.7919 -0.9110
 4410SOL     OW13821   0.448   4.435   3.317 -0.5226 -0.1288  0.0431
 4410SOL    HW113822   0.374   4.445   3.377 -0.2917 -0.9096  0.4740
 4410SOL    HW213823   0.439   4.346   3.283  0.9722 -0.7379  1.1414
 4411SOL     OW13824   6.909   1.794   0.813  0.5615 -0.0825  0.3863
 4411SOL    HW113825   6.857   1.780   0.892  0.0624 -1.9013 -0.2217
 4411SOL    HW213826   6.845   1.793   0.741  1.3355 -1.6793 -0.3194
 4412SOL     OW13827   3.713   4.379   2.631  0.7645  0.0212  0.2065
 4412SOL    HW113828   3.747   4.359   2.718 -0.8256 -0.0199  0.8631
 4412SOL    HW213829   3.788   4.411   2.581  1.6829  0.1113  1.6206
 4413SOL     OW13830   3.016   2.961   0.201 -0.1524  0.2222 -0.1535
 4413SOL    HW113831   2.969   2.942   0.120 -0.8717  1.5948 -0.0806
 4413SOL    HW213832   3.050   2.876   0.229 -0.9824 -0.4878 -1.2050
 4414SOL     OW13833   1.661   0.283   3.252 -0.2669 -0.2033 -0.1161
 4414SOL    HW113834   1.699   0.222   3.189  1.0980  0.6137 -0.1326
 4414SOL    HW213835   1.646   0.231   3.331 -1.1680 -1.0345 -0.8141
 4415SOL     OW13836   2.287   1.534   2.529  0.5866 -0.5132 -0.0440
 4415SOL    HW113837   2.382   1.527   2.533  0.5190 -1.3601  0.3434
 4415SOL    HW213838   2.260   1.539   2.620  0.2402 -0.4842 -0.1473
 4416SOL     OW13839   1.286   2.174   2.973  0.7618  0.8059 -0.3778
 4416SOL    HW113840   1.287   2.162   3.068  0.0073  0.7062 -0.3729
 4416SOL    HW213841   1.372   2.144   2.944  0.9317  0.6641  0.2530
 4417SOL     OW13842   6.342   4.885   0.211 -0.3253  0.2686  0.3879
 4417SOL    HW113843   6.277   4.935   0.261 -0.4212 -0.7240  1.3078
 4417SOL    HW213844   6.291   4.834   0.149 -0.2604  0.9745 -0.2550
 4418SOL     OW13845   2.797   3.984   1.004  0.8351  0.2002 -0.8268
 4418SOL    HW113846   2.849   4.011   0.928  1.7749 -0.4446 -0.4500
 4418SOL    HW213847   2.845   3.908   1.038  1.6167  1.6855  1.6226
 4419SOL     OW13848   3.034   2.990   1.755 -0.2918 -0.0733  0.5018
 4419SOL    HW113849   3.008   2.981   1.664  2.4038  2.8377 -0.7214
 4419SOL    HW213850   2.965   3.044   1.795  0.2363  1.6310 -0.8044
 4420SOL     OW13851   6.725   0.158   2.245  0.0769 -0.2353  0.1305
 4420SOL    HW113852   6.748   0.241   2.288  0.5621 -1.7287  2.9710
 4420SOL    HW213853   6.635   0.171   2.216  0.2582  1.4004  0.1740
 4421SOL     OW13854   0.577   3.778   0.550  0.3409 -0.0274 -0.3695
 4421SOL    HW113855   0.578   3.866   0.511  1.5481 -0.0545 -0.4481
 4421SOL    HW213856   0.550   3.793   0.640 -1.0007  0.2228 -0.7919
 4422SOL     OW13857   5.614   4.218   2.100  0.0115 -0.0778 -0.0227
 4422SOL    HW113858   5.672   4.210   2.176  0.7060  0.8996 -0.4316
 4422SOL    HW213859   5.597   4.312   2.093 -2.3444 -0.3866  0.5995
 4423SOL     OW13860   0.842   4.799   3.009 -0.0615 -0.2026  0.5508
 4423SOL    HW113861   0.774   4.808   3.076 -0.7820 -0.3515 -0.1580
 4423SOL    HW213862   0.837   4.707   2.982 -0.6452  0.1516 -0.6142
 4424SOL     OW13863   2.092   4.181   1.071 -0.5902 -0.4297 -0.8127
 4424SOL    HW113864   2.030   4.147   1.136 -0.1378 -0.1406 -0.2197
 4424SOL    HW213865   2.129   4.102   1.030 -1.8469 -0.6021 -1.6773
 4425SOL     OW13866   3.208   4.249   0.622  0.6393 -0.1859 -0.6033
 4425SOL    HW113867   3.281   4.195   0.653  0.9899  0.8978  0.5644
 4425SOL    HW213868   3.208   4.325   0.680 -1.1632  0.0583 -0.8656
 4426SOL     OW13869   3.492   0.203   1.051  0.3221  0.3638 -0.5973
 4426SOL    HW113870   3.467   0.289   1.085  0.3318  0.2286 -0.2459
 4426SOL    HW213871   3.410   0.155   1.044  0.4272  0.0613  0.1618
 4427SOL     OW13872   4.664   4.742   1.056 -0.2348 -0.3304 -0.3478
 4427SOL    HW113873   4.610   4.735   1.135  0.1900 -0.0074 -0.0218
 4427SOL    HW213874   4.748   4.704   1.081 -0.0989 -0.2237 -0.6448
 4428SOL     OW13875   6.278   4.073   2.161  0.4326 -0.6520 -0.8799
 4428SOL    HW113876   6.257   4.089   2.069  1.2974  0.2937 -0.9365
 4428SOL    HW213877   6.351   4.132   2.179  0.3189 -0.8735  0.3998
 4429SOL     OW13878   0.541   2.333   0.716  0.4200 -0.7679 -0.7105
 4429SOL    HW113879   0.457   2.338   0.669  0.5163 -0.3755 -0.8493
 4429SOL    HW213880   0.520   2.288   0.798  0.3845 -2.1149 -1.4277
 4430SOL     OW13881   5.363   1.860   1.809 -0.0035 -0.3693 -0.1038
 4430SOL    HW113882   5.374   1.778   1.762  1.3021 -0.8954  1.0619
 4430SOL    HW213883   5.386   1.927   1.745 -0.0422 -0.9620 -0.7512
 4431SOL     OW13884   1.472   1.232   1.328  0.5185 -0.0113 -0.1179
 4431SOL    HW113885   1.483   1.327   1.325  0.5757 -0.0181 -3.8767
 4431SOL    HW213886   1.389   1.216   1.284  0.5353 -1.7350  0.4272
 4432SOL     OW13887   2.930   4.940   2.443 -0.0543 -0.5556 -0.1919
 4432SOL    HW113888   2.836   4.936   2.463  0.2383 -0.3847  1.3269
 4432SOL    HW213889   2.954   5.031   2.460  0.2690 -0.4277 -1.2371
 4433SOL     OW13890   0.723   4.789   1.104  0.1370  0.1413 -0.1825
 4433SOL    HW113891   0.809   4.810   1.139  0.0333 -1.1473  0.9641
 4433SOL    HW213892   0.689   4.722   1.164 -1.2132 -0.1538 -1.2252
 4434SOL     OW13893   6.763   0.435   1.184 -0.2640  0.3466  0.0923
 4434SOL    HW113894   6.848   0.392   1.190  1.2002  3.1042  0.5453
 4434SOL    HW213895   6.732   0.440   1.275 -0.2556  0.5716  0.0830
 4435SOL     OW13896   3.927   3.763   0.666  0.6860  0.0270  0.4797
 4435SOL    HW113897   3.922   3.704   0.742 -0.0204  0.7024  0.9731
 4435SOL    HW213898   3.942   3.705   0.592  0.5781 -0.7248  1.0317
 4436SOL     OW13899   4.827   4.499   2.064  1.0008 -0.6070  0.0595
 4436SOL    HW113900   4.844   4.481   2.156 -1.0360 -1.6962  0.2800
 4436SOL    HW213901   4.862   4.422   2.018 -2.6629 -2.7487  0.4941
 4437SOL     OW13902   3.754   3.367   1.023  0.1333  0.4365 -0.0522
 4437SOL    HW113903   3.752   3.437   0.958 -0.9206 -0.1982 -0.7498
 4437SOL    HW213904   3.670   3.375   1.069  0.6483  0.5535  0.8855
 4438SOL     OW13905   5.838   4.360   1.027 -0.0832  0.1994  0.5207
 4438SOL    HW113906   5.788   4.311   0.962  1.8495 -0.7697 -0.3198
 4438SOL    HW213907   5.917   4.388   0.981 -0.0402  2.1493  1.6358
 4439SOL     OW13908   3.494   3.196   0.683  0.0268  0.2088  0.2587
 4439SOL    HW113909   3.411   3.159   0.655 -0.4020  0.2659  1.4069
 4439SOL    HW213910   3.472   3.281   0.721  0.8164  0.9656 -0.8971
 4440SOL     OW13911   3.809   2.821   1.399 -0.0754 -0.1901 -0.0711
 4440SOL    HW113912   3.902   2.831   1.420 -0.3927  0.8324  0.9135
 4440SOL    HW213913   3.802   2.732   1.365  1.1226 -0.5992  0.6829
 4441SOL     OW13914   3.203   3.848   2.548  0.2618  0.3665 -0.0750
 4441SOL    HW113915   3.164   3.764   2.527  0.2821  0.0778  0.9933
 4441SOL    HW213916   3.266   3.864   2.477 -1.1175  0.4261 -1.3456
 4442SOL     OW13917   5.934   5.072   3.324  0.2374  0.1216 -0.3029
 4442SOL    HW113918   5.974   5.127   3.256  1.7078 -0.5186 -0.0010
 4442SOL    HW213919   5.974   5.102   3.405 -1.5075  0.8778  0.3247
 4443SOL     OW13920   0.286   3.669   0.574 -0.1991  0.3154  0.2282
 4443SOL    HW113921   0.248   3.610   0.639 -1.3315  0.0555 -0.6368
 4443SOL    HW213922   0.381   3.661   0.586 -0.3793  0.3514  1.8872
 4444SOL     OW13923   7.175   4.452   0.419 -0.1209 -0.0032  0.4689
 4444SOL    HW113924   7.114   4.378   0.414 -1.8871  1.3533  1.3087
 4444SOL    HW213925   7.122   4.526   0.446  1.8183  1.3738  0.7034
 4445SOL     OW13926   1.420   2.137   1.716 -0.1394  0.1040  0.0570
 4445SOL    HW113927   1.426   2.063   1.656  1.4154 -0.4286  0.8220
 4445SOL    HW213928   1.334   2.128   1.757  0.4820 -2.0067  1.0107
 4446SOL     OW13929   1.776   2.583   1.144  0.4855  0.2712  0.2519
 4446SOL    HW113930   1.703   2.620   1.192 -0.3077  0.5312 -1.0883
 4446SOL    HW213931   1.800   2.504   1.192 -0.5773  0.2636  0.7914
 4447SOL     OW13932   0.444   3.019   3.320  0.2397 -0.5212  0.1476
 4447SOL    HW113933   0.372   2.963   3.349  0.1532 -0.6459 -0.3015
 4447SOL    HW213934   0.407   3.108   3.320  0.3502 -0.4677  0.7710
 4448SOL     OW13935   0.338   0.604   1.852  0.1777 -0.0382  0.2453
 4448SOL    HW113936   0.252   0.604   1.812  0.0975  0.0905  0.4149
 4448SOL    HW213937   0.393   0.554   1.792  0.3540  1.1780 -0.6474
 4449SOL     OW13938   6.636   2.472   0.743  0.4896 -0.0789 -0.3121
 4449SOL    HW113939   6.613   2.427   0.824 -0.5020 -0.2500 -0.6725
 4449SOL    HW213940   6.687   2.408   0.693 -0.0676 -0.4571 -0.3993
 4450SOL     OW13941   0.157   2.852   2.338 -0.4303  0.0250  0.2433
 4450SOL    HW113942   0.121   2.910   2.406 -1.8429  0.8352 -1.1322
 4450SOL    HW213943   0.237   2.896   2.309 -1.3150  1.1691 -0.5524
 4451SOL     OW13944   2.081   0.186   0.574  0.0585 -0.1832  0.2107
 4451SOL    HW113945   2.132   0.144   0.643 -0.9824 -0.6356  0.7368
 4451SOL    HW213946   1.990   0.178   0.604 -0.4652 -0.8405 -1.4631
 4452SOL     OW13947   1.293   1.449   3.218  0.1884  0.4876 -0.4648
 4452SOL    HW113948   1.213   1.446   3.269 -0.8985  0.3466 -2.0943
 4452SOL    HW213949   1.353   1.502   3.271 -1.6369  2.2892 -0.0691
   7.35528   5.34711   3.47832
