; go_flake.itp -- generated from a lattice-built (not DFT-relaxed) geometry
; charges/vdW: literature-averaged GAFF2-AIM values (Pinto et al. 2022, JPCB)
; by chemical role; bonded force constants generic by bond/angle type
; net charge neutralized by a uniform 0.005037 e/atom correction

[ moleculetype ]
; Name    nrexcl
GOFLAKE     3

[ atoms ]
;   nr    type  resnr residue  atom  cgnr    charge      mass
     1        C_edge      1  GOFLAKE  C1         1    -0.1450    12.011
     2        C_edge      1  GOFLAKE  C2         2    -0.1450    12.011
     3        C_edge      1  GOFLAKE  C3         3    -0.1450    12.011
     4        C_edge      1  GOFLAKE  C4         4    -0.1450    12.011
     5        C_edge      1  GOFLAKE  C5         5    -0.1450    12.011
     6        C_edge      1  GOFLAKE  C6         6    -0.1450    12.011
     7        C_edge      1  GOFLAKE  C7         7    -0.1450    12.011
     8        C_edge      1  GOFLAKE  C8         8    -0.1450    12.011
     9        C_edge      1  GOFLAKE  C9         9    -0.1450    12.011
    10        C_edge      1  GOFLAKE  C10       10    -0.1450    12.011
    11        C_edge      1  GOFLAKE  C11       11    -0.1450    12.011
    12        C_edge      1  GOFLAKE  C12       12    -0.1450    12.011
    13        C_edge      1  GOFLAKE  C13       13    -0.1450    12.011
    14        C_edge      1  GOFLAKE  C14       14    -0.1450    12.011
    15     C_epoxide      1  GOFLAKE  C15       15     0.1170    12.011
    16       C_basal      1  GOFLAKE  C16       16    -0.0074    12.011
    17       C_basal      1  GOFLAKE  C17       17    -0.0074    12.011
    18       C_basal      1  GOFLAKE  C18       18    -0.0074    12.011
    19       C_basal      1  GOFLAKE  C19       19    -0.0074    12.011
    20       C_basal      1  GOFLAKE  C20       20    -0.0074    12.011
    21       C_basal      1  GOFLAKE  C21       21    -0.0074    12.011
    22    C_hydroxyl      1  GOFLAKE  C22       22     0.1726    12.011
    23       C_basal      1  GOFLAKE  C23       23    -0.0074    12.011
    24       C_basal      1  GOFLAKE  C24       24    -0.0074    12.011
    25       C_basal      1  GOFLAKE  C25       25    -0.0074    12.011
    26       C_basal      1  GOFLAKE  C26       26    -0.0074    12.011
    27       C_basal      1  GOFLAKE  C27       27    -0.0074    12.011
    28       C_basal      1  GOFLAKE  C28       28    -0.0074    12.011
    29       C_basal      1  GOFLAKE  C29       29    -0.0074    12.011
    30       C_basal      1  GOFLAKE  C30       30    -0.0074    12.011
    31       C_basal      1  GOFLAKE  C31       31    -0.0074    12.011
    32       C_basal      1  GOFLAKE  C32       32    -0.0074    12.011
    33       C_basal      1  GOFLAKE  C33       33    -0.0074    12.011
    34       C_basal      1  GOFLAKE  C34       34    -0.0074    12.011
    35       C_basal      1  GOFLAKE  C35       35    -0.0074    12.011
    36       C_basal      1  GOFLAKE  C36       36    -0.0074    12.011
    37       C_basal      1  GOFLAKE  C37       37    -0.0074    12.011
    38       C_basal      1  GOFLAKE  C38       38    -0.0074    12.011
    39       C_basal      1  GOFLAKE  C39       39    -0.0074    12.011
    40        C_edge      1  GOFLAKE  C40       40    -0.1450    12.011
    41        C_edge      1  GOFLAKE  C41       41    -0.1450    12.011
    42        C_edge      1  GOFLAKE  C42       42    -0.1450    12.011
    43    C_hydroxyl      1  GOFLAKE  C43       43     0.1726    12.011
    44     C_epoxide      1  GOFLAKE  C44       44     0.1170    12.011
    45       C_basal      1  GOFLAKE  C45       45    -0.0074    12.011
    46       C_basal      1  GOFLAKE  C46       46    -0.0074    12.011
    47       C_basal      1  GOFLAKE  C47       47    -0.0074    12.011
    48       C_basal      1  GOFLAKE  C48       48    -0.0074    12.011
    49     C_epoxide      1  GOFLAKE  C49       49     0.1170    12.011
    50       C_basal      1  GOFLAKE  C50       50    -0.0074    12.011
    51       C_basal      1  GOFLAKE  C51       51    -0.0074    12.011
    52       C_basal      1  GOFLAKE  C52       52    -0.0074    12.011
    53     C_epoxide      1  GOFLAKE  C53       53     0.1170    12.011
    54    C_hydroxyl      1  GOFLAKE  C54       54     0.1726    12.011
    55       C_basal      1  GOFLAKE  C55       55    -0.0074    12.011
    56    C_hydroxyl      1  GOFLAKE  C56       56     0.1726    12.011
    57       C_basal      1  GOFLAKE  C57       57    -0.0074    12.011
    58       C_basal      1  GOFLAKE  C58       58    -0.0074    12.011
    59    C_hydroxyl      1  GOFLAKE  C59       59     0.1726    12.011
    60       C_basal      1  GOFLAKE  C60       60    -0.0074    12.011
    61       C_basal      1  GOFLAKE  C61       61    -0.0074    12.011
    62       C_basal      1  GOFLAKE  C62       62    -0.0074    12.011
    63       C_basal      1  GOFLAKE  C63       63    -0.0074    12.011
    64       C_basal      1  GOFLAKE  C64       64    -0.0074    12.011
    65    C_hydroxyl      1  GOFLAKE  C65       65     0.1726    12.011
    66       C_basal      1  GOFLAKE  C66       66    -0.0074    12.011
    67       C_basal      1  GOFLAKE  C67       67    -0.0074    12.011
    68       C_basal      1  GOFLAKE  C68       68    -0.0074    12.011
    69        C_edge      1  GOFLAKE  C69       69    -0.1450    12.011
    70        C_edge      1  GOFLAKE  C70       70    -0.1450    12.011
    71       C_basal      1  GOFLAKE  C71       71    -0.0074    12.011
    72       C_basal      1  GOFLAKE  C72       72    -0.0074    12.011
    73       C_basal      1  GOFLAKE  C73       73    -0.0074    12.011
    74       C_basal      1  GOFLAKE  C74       74    -0.0074    12.011
    75    C_hydroxyl      1  GOFLAKE  C75       75     0.1726    12.011
    76     C_epoxide      1  GOFLAKE  C76       76     0.1170    12.011
    77       C_basal      1  GOFLAKE  C77       77    -0.0074    12.011
    78       C_basal      1  GOFLAKE  C78       78    -0.0074    12.011
    79       C_basal      1  GOFLAKE  C79       79    -0.0074    12.011
    80     C_epoxide      1  GOFLAKE  C80       80     0.1170    12.011
    81       C_basal      1  GOFLAKE  C81       81    -0.0074    12.011
    82       C_basal      1  GOFLAKE  C82       82    -0.0074    12.011
    83     C_epoxide      1  GOFLAKE  C83       83     0.1170    12.011
    84       C_basal      1  GOFLAKE  C84       84    -0.0074    12.011
    85       C_basal      1  GOFLAKE  C85       85    -0.0074    12.011
    86       C_basal      1  GOFLAKE  C86       86    -0.0074    12.011
    87       C_basal      1  GOFLAKE  C87       87    -0.0074    12.011
    88       C_basal      1  GOFLAKE  C88       88    -0.0074    12.011
    89       C_basal      1  GOFLAKE  C89       89    -0.0074    12.011
    90       C_basal      1  GOFLAKE  C90       90    -0.0074    12.011
    91       C_basal      1  GOFLAKE  C91       91    -0.0074    12.011
    92       C_basal      1  GOFLAKE  C92       92    -0.0074    12.011
    93       C_basal      1  GOFLAKE  C93       93    -0.0074    12.011
    94       C_basal      1  GOFLAKE  C94       94    -0.0074    12.011
    95       C_basal      1  GOFLAKE  C95       95    -0.0074    12.011
    96       C_basal      1  GOFLAKE  C96       96    -0.0074    12.011
    97        C_edge      1  GOFLAKE  C97       97    -0.1450    12.011
    98        C_edge      1  GOFLAKE  C98       98    -0.1450    12.011
    99       C_basal      1  GOFLAKE  C99       99    -0.0074    12.011
   100       C_basal      1  GOFLAKE  C100     100    -0.0074    12.011
   101       C_basal      1  GOFLAKE  C101     101    -0.0074    12.011
   102       C_basal      1  GOFLAKE  C102     102    -0.0074    12.011
   103       C_basal      1  GOFLAKE  C103     103    -0.0074    12.011
   104       C_basal      1  GOFLAKE  C104     104    -0.0074    12.011
   105    C_hydroxyl      1  GOFLAKE  C105     105     0.1726    12.011
   106       C_basal      1  GOFLAKE  C106     106    -0.0074    12.011
   107       C_basal      1  GOFLAKE  C107     107    -0.0074    12.011
   108       C_basal      1  GOFLAKE  C108     108    -0.0074    12.011
   109       C_basal      1  GOFLAKE  C109     109    -0.0074    12.011
   110       C_basal      1  GOFLAKE  C110     110    -0.0074    12.011
   111       C_basal      1  GOFLAKE  C111     111    -0.0074    12.011
   112     C_epoxide      1  GOFLAKE  C112     112     0.1170    12.011
   113       C_basal      1  GOFLAKE  C113     113    -0.0074    12.011
   114       C_basal      1  GOFLAKE  C114     114    -0.0074    12.011
   115     C_epoxide      1  GOFLAKE  C115     115     0.1170    12.011
   116       C_basal      1  GOFLAKE  C116     116    -0.0074    12.011
   117       C_basal      1  GOFLAKE  C117     117    -0.0074    12.011
   118       C_basal      1  GOFLAKE  C118     118    -0.0074    12.011
   119       C_basal      1  GOFLAKE  C119     119    -0.0074    12.011
   120    C_hydroxyl      1  GOFLAKE  C120     120     0.1726    12.011
   121       C_basal      1  GOFLAKE  C121     121    -0.0074    12.011
   122     C_epoxide      1  GOFLAKE  C122     122     0.1170    12.011
   123     C_epoxide      1  GOFLAKE  C123     123     0.1170    12.011
   124       C_basal      1  GOFLAKE  C124     124    -0.0074    12.011
   125        C_edge      1  GOFLAKE  C125     125    -0.1450    12.011
   126        C_edge      1  GOFLAKE  C126     126    -0.1450    12.011
   127    C_hydroxyl      1  GOFLAKE  C127     127     0.1726    12.011
   128       C_basal      1  GOFLAKE  C128     128    -0.0074    12.011
   129       C_basal      1  GOFLAKE  C129     129    -0.0074    12.011
   130       C_basal      1  GOFLAKE  C130     130    -0.0074    12.011
   131       C_basal      1  GOFLAKE  C131     131    -0.0074    12.011
   132       C_basal      1  GOFLAKE  C132     132    -0.0074    12.011
   133       C_basal      1  GOFLAKE  C133     133    -0.0074    12.011
   134       C_basal      1  GOFLAKE  C134     134    -0.0074    12.011
   135       C_basal      1  GOFLAKE  C135     135    -0.0074    12.011
   136       C_basal      1  GOFLAKE  C136     136    -0.0074    12.011
   137       C_basal      1  GOFLAKE  C137     137    -0.0074    12.011
   138       C_basal      1  GOFLAKE  C138     138    -0.0074    12.011
   139       C_basal      1  GOFLAKE  C139     139    -0.0074    12.011
   140       C_basal      1  GOFLAKE  C140     140    -0.0074    12.011
   141     C_epoxide      1  GOFLAKE  C141     141     0.1170    12.011
   142       C_basal      1  GOFLAKE  C142     142    -0.0074    12.011
   143       C_basal      1  GOFLAKE  C143     143    -0.0074    12.011
   144     C_epoxide      1  GOFLAKE  C144     144     0.1170    12.011
   145       C_basal      1  GOFLAKE  C145     145    -0.0074    12.011
   146       C_basal      1  GOFLAKE  C146     146    -0.0074    12.011
   147     C_epoxide      1  GOFLAKE  C147     147     0.1170    12.011
   148       C_basal      1  GOFLAKE  C148     148    -0.0074    12.011
   149       C_basal      1  GOFLAKE  C149     149    -0.0074    12.011
   150       C_basal      1  GOFLAKE  C150     150    -0.0074    12.011
   151       C_basal      1  GOFLAKE  C151     151    -0.0074    12.011
   152       C_basal      1  GOFLAKE  C152     152    -0.0074    12.011
   153        C_edge      1  GOFLAKE  C153     153    -0.1450    12.011
   154        C_edge      1  GOFLAKE  C154     154    -0.1450    12.011
   155    C_hydroxyl      1  GOFLAKE  C155     155     0.1726    12.011
   156       C_basal      1  GOFLAKE  C156     156    -0.0074    12.011
   157    C_hydroxyl      1  GOFLAKE  C157     157     0.1726    12.011
   158       C_basal      1  GOFLAKE  C158     158    -0.0074    12.011
   159       C_basal      1  GOFLAKE  C159     159    -0.0074    12.011
   160     C_epoxide      1  GOFLAKE  C160     160     0.1170    12.011
   161     C_epoxide      1  GOFLAKE  C161     161     0.1170    12.011
   162       C_basal      1  GOFLAKE  C162     162    -0.0074    12.011
   163       C_basal      1  GOFLAKE  C163     163    -0.0074    12.011
   164       C_basal      1  GOFLAKE  C164     164    -0.0074    12.011
   165       C_basal      1  GOFLAKE  C165     165    -0.0074    12.011
   166       C_basal      1  GOFLAKE  C166     166    -0.0074    12.011
   167     C_epoxide      1  GOFLAKE  C167     167     0.1170    12.011
   168     C_epoxide      1  GOFLAKE  C168     168     0.1170    12.011
   169       C_basal      1  GOFLAKE  C169     169    -0.0074    12.011
   170       C_basal      1  GOFLAKE  C170     170    -0.0074    12.011
   171       C_basal      1  GOFLAKE  C171     171    -0.0074    12.011
   172       C_basal      1  GOFLAKE  C172     172    -0.0074    12.011
   173       C_basal      1  GOFLAKE  C173     173    -0.0074    12.011
   174     C_epoxide      1  GOFLAKE  C174     174     0.1170    12.011
   175       C_basal      1  GOFLAKE  C175     175    -0.0074    12.011
   176       C_basal      1  GOFLAKE  C176     176    -0.0074    12.011
   177       C_basal      1  GOFLAKE  C177     177    -0.0074    12.011
   178     C_epoxide      1  GOFLAKE  C178     178     0.1170    12.011
   179     C_epoxide      1  GOFLAKE  C179     179     0.1170    12.011
   180       C_basal      1  GOFLAKE  C180     180    -0.0074    12.011
   181        C_edge      1  GOFLAKE  C181     181    -0.1450    12.011
   182        C_edge      1  GOFLAKE  C182     182    -0.1450    12.011
   183       C_basal      1  GOFLAKE  C183     183    -0.0074    12.011
   184       C_basal      1  GOFLAKE  C184     184    -0.0074    12.011
   185       C_basal      1  GOFLAKE  C185     185    -0.0074    12.011
   186       C_basal      1  GOFLAKE  C186     186    -0.0074    12.011
   187       C_basal      1  GOFLAKE  C187     187    -0.0074    12.011
   188       C_basal      1  GOFLAKE  C188     188    -0.0074    12.011
   189       C_basal      1  GOFLAKE  C189     189    -0.0074    12.011
   190       C_basal      1  GOFLAKE  C190     190    -0.0074    12.011
   191     C_epoxide      1  GOFLAKE  C191     191     0.1170    12.011
   192       C_basal      1  GOFLAKE  C192     192    -0.0074    12.011
   193    C_hydroxyl      1  GOFLAKE  C193     193     0.1726    12.011
   194     C_epoxide      1  GOFLAKE  C194     194     0.1170    12.011
   195       C_basal      1  GOFLAKE  C195     195    -0.0074    12.011
   196       C_basal      1  GOFLAKE  C196     196    -0.0074    12.011
   197     C_epoxide      1  GOFLAKE  C197     197     0.1170    12.011
   198       C_basal      1  GOFLAKE  C198     198    -0.0074    12.011
   199       C_basal      1  GOFLAKE  C199     199    -0.0074    12.011
   200     C_epoxide      1  GOFLAKE  C200     200     0.1170    12.011
   201     C_epoxide      1  GOFLAKE  C201     201     0.1170    12.011
   202       C_basal      1  GOFLAKE  C202     202    -0.0074    12.011
   203     C_epoxide      1  GOFLAKE  C203     203     0.1170    12.011
   204       C_basal      1  GOFLAKE  C204     204    -0.0074    12.011
   205       C_basal      1  GOFLAKE  C205     205    -0.0074    12.011
   206       C_basal      1  GOFLAKE  C206     206    -0.0074    12.011
   207       C_basal      1  GOFLAKE  C207     207    -0.0074    12.011
   208       C_basal      1  GOFLAKE  C208     208    -0.0074    12.011
   209        C_edge      1  GOFLAKE  C209     209    -0.1450    12.011
   210        C_edge      1  GOFLAKE  C210     210    -0.1450    12.011
   211       C_basal      1  GOFLAKE  C211     211    -0.0074    12.011
   212       C_basal      1  GOFLAKE  C212     212    -0.0074    12.011
   213       C_basal      1  GOFLAKE  C213     213    -0.0074    12.011
   214       C_basal      1  GOFLAKE  C214     214    -0.0074    12.011
   215       C_basal      1  GOFLAKE  C215     215    -0.0074    12.011
   216       C_basal      1  GOFLAKE  C216     216    -0.0074    12.011
   217       C_basal      1  GOFLAKE  C217     217    -0.0074    12.011
   218     C_epoxide      1  GOFLAKE  C218     218     0.1170    12.011
   219       C_basal      1  GOFLAKE  C219     219    -0.0074    12.011
   220       C_basal      1  GOFLAKE  C220     220    -0.0074    12.011
   221       C_basal      1  GOFLAKE  C221     221    -0.0074    12.011
   222       C_basal      1  GOFLAKE  C222     222    -0.0074    12.011
   223       C_basal      1  GOFLAKE  C223     223    -0.0074    12.011
   224     C_epoxide      1  GOFLAKE  C224     224     0.1170    12.011
   225       C_basal      1  GOFLAKE  C225     225    -0.0074    12.011
   226       C_basal      1  GOFLAKE  C226     226    -0.0074    12.011
   227       C_basal      1  GOFLAKE  C227     227    -0.0074    12.011
   228       C_basal      1  GOFLAKE  C228     228    -0.0074    12.011
   229     C_epoxide      1  GOFLAKE  C229     229     0.1170    12.011
   230       C_basal      1  GOFLAKE  C230     230    -0.0074    12.011
   231       C_basal      1  GOFLAKE  C231     231    -0.0074    12.011
   232     C_epoxide      1  GOFLAKE  C232     232     0.1170    12.011
   233       C_basal      1  GOFLAKE  C233     233    -0.0074    12.011
   234       C_basal      1  GOFLAKE  C234     234    -0.0074    12.011
   235    C_hydroxyl      1  GOFLAKE  C235     235     0.1726    12.011
   236       C_basal      1  GOFLAKE  C236     236    -0.0074    12.011
   237        C_edge      1  GOFLAKE  C237     237    -0.1450    12.011
   238        C_edge      1  GOFLAKE  C238     238    -0.1450    12.011
   239       C_basal      1  GOFLAKE  C239     239    -0.0074    12.011
   240    C_hydroxyl      1  GOFLAKE  C240     240     0.1726    12.011
   241       C_basal      1  GOFLAKE  C241     241    -0.0074    12.011
   242       C_basal      1  GOFLAKE  C242     242    -0.0074    12.011
   243       C_basal      1  GOFLAKE  C243     243    -0.0074    12.011
   244       C_basal      1  GOFLAKE  C244     244    -0.0074    12.011
   245       C_basal      1  GOFLAKE  C245     245    -0.0074    12.011
   246       C_basal      1  GOFLAKE  C246     246    -0.0074    12.011
   247       C_basal      1  GOFLAKE  C247     247    -0.0074    12.011
   248       C_basal      1  GOFLAKE  C248     248    -0.0074    12.011
   249       C_basal      1  GOFLAKE  C249     249    -0.0074    12.011
   250     C_epoxide      1  GOFLAKE  C250     250     0.1170    12.011
   251     C_epoxide      1  GOFLAKE  C251     251     0.1170    12.011
   252     C_epoxide      1  GOFLAKE  C252     252     0.1170    12.011
   253     C_epoxide      1  GOFLAKE  C253     253     0.1170    12.011
   254       C_basal      1  GOFLAKE  C254     254    -0.0074    12.011
   255       C_basal      1  GOFLAKE  C255     255    -0.0074    12.011
   256     C_epoxide      1  GOFLAKE  C256     256     0.1170    12.011
   257       C_basal      1  GOFLAKE  C257     257    -0.0074    12.011
   258       C_basal      1  GOFLAKE  C258     258    -0.0074    12.011
   259     C_epoxide      1  GOFLAKE  C259     259     0.1170    12.011
   260       C_basal      1  GOFLAKE  C260     260    -0.0074    12.011
   261       C_basal      1  GOFLAKE  C261     261    -0.0074    12.011
   262       C_basal      1  GOFLAKE  C262     262    -0.0074    12.011
   263       C_basal      1  GOFLAKE  C263     263    -0.0074    12.011
   264       C_basal      1  GOFLAKE  C264     264    -0.0074    12.011
   265        C_edge      1  GOFLAKE  C265     265    -0.1450    12.011
   266        C_edge      1  GOFLAKE  C266     266    -0.1450    12.011
   267       C_basal      1  GOFLAKE  C267     267    -0.0074    12.011
   268     C_epoxide      1  GOFLAKE  C268     268     0.1170    12.011
   269     C_epoxide      1  GOFLAKE  C269     269     0.1170    12.011
   270       C_basal      1  GOFLAKE  C270     270    -0.0074    12.011
   271       C_basal      1  GOFLAKE  C271     271    -0.0074    12.011
   272       C_basal      1  GOFLAKE  C272     272    -0.0074    12.011
   273       C_basal      1  GOFLAKE  C273     273    -0.0074    12.011
   274       C_basal      1  GOFLAKE  C274     274    -0.0074    12.011
   275    C_hydroxyl      1  GOFLAKE  C275     275     0.1726    12.011
   276       C_basal      1  GOFLAKE  C276     276    -0.0074    12.011
   277       C_basal      1  GOFLAKE  C277     277    -0.0074    12.011
   278       C_basal      1  GOFLAKE  C278     278    -0.0074    12.011
   279     C_epoxide      1  GOFLAKE  C279     279     0.1170    12.011
   280       C_basal      1  GOFLAKE  C280     280    -0.0074    12.011
   281       C_basal      1  GOFLAKE  C281     281    -0.0074    12.011
   282       C_basal      1  GOFLAKE  C282     282    -0.0074    12.011
   283       C_basal      1  GOFLAKE  C283     283    -0.0074    12.011
   284       C_basal      1  GOFLAKE  C284     284    -0.0074    12.011
   285       C_basal      1  GOFLAKE  C285     285    -0.0074    12.011
   286     C_epoxide      1  GOFLAKE  C286     286     0.1170    12.011
   287       C_basal      1  GOFLAKE  C287     287    -0.0074    12.011
   288       C_basal      1  GOFLAKE  C288     288    -0.0074    12.011
   289       C_basal      1  GOFLAKE  C289     289    -0.0074    12.011
   290    C_hydroxyl      1  GOFLAKE  C290     290     0.1726    12.011
   291       C_basal      1  GOFLAKE  C291     291    -0.0074    12.011
   292       C_basal      1  GOFLAKE  C292     292    -0.0074    12.011
   293        C_edge      1  GOFLAKE  C293     293    -0.1450    12.011
   294        C_edge      1  GOFLAKE  C294     294    -0.1450    12.011
   295       C_basal      1  GOFLAKE  C295     295    -0.0074    12.011
   296       C_basal      1  GOFLAKE  C296     296    -0.0074    12.011
   297       C_basal      1  GOFLAKE  C297     297    -0.0074    12.011
   298       C_basal      1  GOFLAKE  C298     298    -0.0074    12.011
   299    C_hydroxyl      1  GOFLAKE  C299     299     0.1726    12.011
   300       C_basal      1  GOFLAKE  C300     300    -0.0074    12.011
   301       C_basal      1  GOFLAKE  C301     301    -0.0074    12.011
   302       C_basal      1  GOFLAKE  C302     302    -0.0074    12.011
   303       C_basal      1  GOFLAKE  C303     303    -0.0074    12.011
   304       C_basal      1  GOFLAKE  C304     304    -0.0074    12.011
   305       C_basal      1  GOFLAKE  C305     305    -0.0074    12.011
   306     C_epoxide      1  GOFLAKE  C306     306     0.1170    12.011
   307       C_basal      1  GOFLAKE  C307     307    -0.0074    12.011
   308       C_basal      1  GOFLAKE  C308     308    -0.0074    12.011
   309     C_epoxide      1  GOFLAKE  C309     309     0.1170    12.011
   310       C_basal      1  GOFLAKE  C310     310    -0.0074    12.011
   311       C_basal      1  GOFLAKE  C311     311    -0.0074    12.011
   312       C_basal      1  GOFLAKE  C312     312    -0.0074    12.011
   313    C_hydroxyl      1  GOFLAKE  C313     313     0.1726    12.011
   314       C_basal      1  GOFLAKE  C314     314    -0.0074    12.011
   315       C_basal      1  GOFLAKE  C315     315    -0.0074    12.011
   316       C_basal      1  GOFLAKE  C316     316    -0.0074    12.011
   317       C_basal      1  GOFLAKE  C317     317    -0.0074    12.011
   318       C_basal      1  GOFLAKE  C318     318    -0.0074    12.011
   319       C_basal      1  GOFLAKE  C319     319    -0.0074    12.011
   320       C_basal      1  GOFLAKE  C320     320    -0.0074    12.011
   321        C_edge      1  GOFLAKE  C321     321    -0.1450    12.011
   322        C_edge      1  GOFLAKE  C322     322    -0.1450    12.011
   323       C_basal      1  GOFLAKE  C323     323    -0.0074    12.011
   324       C_basal      1  GOFLAKE  C324     324    -0.0074    12.011
   325    C_hydroxyl      1  GOFLAKE  C325     325     0.1726    12.011
   326       C_basal      1  GOFLAKE  C326     326    -0.0074    12.011
   327       C_basal      1  GOFLAKE  C327     327    -0.0074    12.011
   328       C_basal      1  GOFLAKE  C328     328    -0.0074    12.011
   329       C_basal      1  GOFLAKE  C329     329    -0.0074    12.011
   330       C_basal      1  GOFLAKE  C330     330    -0.0074    12.011
   331       C_basal      1  GOFLAKE  C331     331    -0.0074    12.011
   332       C_basal      1  GOFLAKE  C332     332    -0.0074    12.011
   333       C_basal      1  GOFLAKE  C333     333    -0.0074    12.011
   334       C_basal      1  GOFLAKE  C334     334    -0.0074    12.011
   335       C_basal      1  GOFLAKE  C335     335    -0.0074    12.011
   336       C_basal      1  GOFLAKE  C336     336    -0.0074    12.011
   337       C_basal      1  GOFLAKE  C337     337    -0.0074    12.011
   338     C_epoxide      1  GOFLAKE  C338     338     0.1170    12.011
   339       C_basal      1  GOFLAKE  C339     339    -0.0074    12.011
   340       C_basal      1  GOFLAKE  C340     340    -0.0074    12.011
   341       C_basal      1  GOFLAKE  C341     341    -0.0074    12.011
   342       C_basal      1  GOFLAKE  C342     342    -0.0074    12.011
   343       C_basal      1  GOFLAKE  C343     343    -0.0074    12.011
   344       C_basal      1  GOFLAKE  C344     344    -0.0074    12.011
   345       C_basal      1  GOFLAKE  C345     345    -0.0074    12.011
   346       C_basal      1  GOFLAKE  C346     346    -0.0074    12.011
   347       C_basal      1  GOFLAKE  C347     347    -0.0074    12.011
   348    C_hydroxyl      1  GOFLAKE  C348     348     0.1726    12.011
   349        C_edge      1  GOFLAKE  C349     349    -0.1450    12.011
   350        C_edge      1  GOFLAKE  C350     350    -0.1450    12.011
   351       C_basal      1  GOFLAKE  C351     351    -0.0074    12.011
   352       C_basal      1  GOFLAKE  C352     352    -0.0074    12.011
   353     C_epoxide      1  GOFLAKE  C353     353     0.1170    12.011
   354       C_basal      1  GOFLAKE  C354     354    -0.0074    12.011
   355       C_basal      1  GOFLAKE  C355     355    -0.0074    12.011
   356       C_basal      1  GOFLAKE  C356     356    -0.0074    12.011
   357       C_basal      1  GOFLAKE  C357     357    -0.0074    12.011
   358       C_basal      1  GOFLAKE  C358     358    -0.0074    12.011
   359       C_basal      1  GOFLAKE  C359     359    -0.0074    12.011
   360       C_basal      1  GOFLAKE  C360     360    -0.0074    12.011
   361    C_hydroxyl      1  GOFLAKE  C361     361     0.1726    12.011
   362       C_basal      1  GOFLAKE  C362     362    -0.0074    12.011
   363       C_basal      1  GOFLAKE  C363     363    -0.0074    12.011
   364       C_basal      1  GOFLAKE  C364     364    -0.0074    12.011
   365     C_epoxide      1  GOFLAKE  C365     365     0.1170    12.011
   366       C_basal      1  GOFLAKE  C366     366    -0.0074    12.011
   367     C_epoxide      1  GOFLAKE  C367     367     0.1170    12.011
   368    C_hydroxyl      1  GOFLAKE  C368     368     0.1726    12.011
   369       C_basal      1  GOFLAKE  C369     369    -0.0074    12.011
   370       C_basal      1  GOFLAKE  C370     370    -0.0074    12.011
   371       C_basal      1  GOFLAKE  C371     371    -0.0074    12.011
   372       C_basal      1  GOFLAKE  C372     372    -0.0074    12.011
   373       C_basal      1  GOFLAKE  C373     373    -0.0074    12.011
   374     C_epoxide      1  GOFLAKE  C374     374     0.1170    12.011
   375     C_epoxide      1  GOFLAKE  C375     375     0.1170    12.011
   376       C_basal      1  GOFLAKE  C376     376    -0.0074    12.011
   377        C_edge      1  GOFLAKE  C377     377    -0.1450    12.011
   378        C_edge      1  GOFLAKE  C378     378    -0.1450    12.011
   379        C_edge      1  GOFLAKE  C379     379    -0.1450    12.011
   380     C_epoxide      1  GOFLAKE  C380     380     0.1170    12.011
   381       C_basal      1  GOFLAKE  C381     381    -0.0074    12.011
   382       C_basal      1  GOFLAKE  C382     382    -0.0074    12.011
   383    C_hydroxyl      1  GOFLAKE  C383     383     0.1726    12.011
   384       C_basal      1  GOFLAKE  C384     384    -0.0074    12.011
   385    C_hydroxyl      1  GOFLAKE  C385     385     0.1726    12.011
   386       C_basal      1  GOFLAKE  C386     386    -0.0074    12.011
   387       C_basal      1  GOFLAKE  C387     387    -0.0074    12.011
   388       C_basal      1  GOFLAKE  C388     388    -0.0074    12.011
   389       C_basal      1  GOFLAKE  C389     389    -0.0074    12.011
   390       C_basal      1  GOFLAKE  C390     390    -0.0074    12.011
   391       C_basal      1  GOFLAKE  C391     391    -0.0074    12.011
   392     C_epoxide      1  GOFLAKE  C392     392     0.1170    12.011
   393       C_basal      1  GOFLAKE  C393     393    -0.0074    12.011
   394       C_basal      1  GOFLAKE  C394     394    -0.0074    12.011
   395       C_basal      1  GOFLAKE  C395     395    -0.0074    12.011
   396     C_epoxide      1  GOFLAKE  C396     396     0.1170    12.011
   397       C_basal      1  GOFLAKE  C397     397    -0.0074    12.011
   398       C_basal      1  GOFLAKE  C398     398    -0.0074    12.011
   399    C_hydroxyl      1  GOFLAKE  C399     399     0.1726    12.011
   400       C_basal      1  GOFLAKE  C400     400    -0.0074    12.011
   401       C_basal      1  GOFLAKE  C401     401    -0.0074    12.011
   402       C_basal      1  GOFLAKE  C402     402    -0.0074    12.011
   403       C_basal      1  GOFLAKE  C403     403    -0.0074    12.011
   404       C_basal      1  GOFLAKE  C404     404    -0.0074    12.011
   405        C_edge      1  GOFLAKE  C405     405    -0.1450    12.011
   406        C_edge      1  GOFLAKE  C406     406    -0.1450    12.011
   407        C_edge      1  GOFLAKE  C407     407    -0.1450    12.011
   408        C_edge      1  GOFLAKE  C408     408    -0.1450    12.011
   409        C_edge      1  GOFLAKE  C409     409    -0.1450    12.011
   410        C_edge      1  GOFLAKE  C410     410    -0.1450    12.011
   411        C_edge      1  GOFLAKE  C411     411    -0.1450    12.011
   412        C_edge      1  GOFLAKE  C412     412    -0.1450    12.011
   413        C_edge      1  GOFLAKE  C413     413    -0.1450    12.011
   414        C_edge      1  GOFLAKE  C414     414    -0.1450    12.011
   415        C_edge      1  GOFLAKE  C415     415    -0.1450    12.011
   416        C_edge      1  GOFLAKE  C416     416    -0.1450    12.011
   417        C_edge      1  GOFLAKE  C417     417    -0.1450    12.011
   418        C_edge      1  GOFLAKE  C418     418    -0.1450    12.011
   419        H_edge      1  GOFLAKE  H419     419     0.1550     1.008
   420        H_edge      1  GOFLAKE  H420     420     0.1550     1.008
   421        H_edge      1  GOFLAKE  H421     421     0.1550     1.008
   422        H_edge      1  GOFLAKE  H422     422     0.1550     1.008
   423        H_edge      1  GOFLAKE  H423     423     0.1550     1.008
   424        H_edge      1  GOFLAKE  H424     424     0.1550     1.008
   425        H_edge      1  GOFLAKE  H425     425     0.1550     1.008
   426        H_edge      1  GOFLAKE  H426     426     0.1550     1.008
   427        H_edge      1  GOFLAKE  H427     427     0.1550     1.008
   428        H_edge      1  GOFLAKE  H428     428     0.1550     1.008
   429        H_edge      1  GOFLAKE  H429     429     0.1550     1.008
   430        H_edge      1  GOFLAKE  H430     430     0.1550     1.008
   431        H_edge      1  GOFLAKE  H431     431     0.1550     1.008
   432        H_edge      1  GOFLAKE  H432     432     0.1550     1.008
   433        H_edge      1  GOFLAKE  H433     433     0.1550     1.008
   434        H_edge      1  GOFLAKE  H434     434     0.1550     1.008
   435        H_edge      1  GOFLAKE  H435     435     0.1550     1.008
   436        H_edge      1  GOFLAKE  H436     436     0.1550     1.008
   437        H_edge      1  GOFLAKE  H437     437     0.1550     1.008
   438        H_edge      1  GOFLAKE  H438     438     0.1550     1.008
   439        H_edge      1  GOFLAKE  H439     439     0.1550     1.008
   440        H_edge      1  GOFLAKE  H440     440     0.1550     1.008
   441        H_edge      1  GOFLAKE  H441     441     0.1550     1.008
   442        H_edge      1  GOFLAKE  H442     442     0.1550     1.008
   443        H_edge      1  GOFLAKE  H443     443     0.1550     1.008
   444        H_edge      1  GOFLAKE  H444     444     0.1550     1.008
   445        H_edge      1  GOFLAKE  H445     445     0.1550     1.008
   446        H_edge      1  GOFLAKE  H446     446     0.1550     1.008
   447        H_edge      1  GOFLAKE  H447     447     0.1550     1.008
   448        H_edge      1  GOFLAKE  H448     448     0.1550     1.008
   449        H_edge      1  GOFLAKE  H449     449     0.1550     1.008
   450        H_edge      1  GOFLAKE  H450     450     0.1550     1.008
   451        H_edge      1  GOFLAKE  H451     451     0.1550     1.008
   452        H_edge      1  GOFLAKE  H452     452     0.1550     1.008
   453        H_edge      1  GOFLAKE  H453     453     0.1550     1.008
   454        H_edge      1  GOFLAKE  H454     454     0.1550     1.008
   455        H_edge      1  GOFLAKE  H455     455     0.1550     1.008
   456        H_edge      1  GOFLAKE  H456     456     0.1550     1.008
   457        H_edge      1  GOFLAKE  H457     457     0.1550     1.008
   458        H_edge      1  GOFLAKE  H458     458     0.1550     1.008
   459        H_edge      1  GOFLAKE  H459     459     0.1550     1.008
   460        H_edge      1  GOFLAKE  H460     460     0.1550     1.008
   461        H_edge      1  GOFLAKE  H461     461     0.1550     1.008
   462        H_edge      1  GOFLAKE  H462     462     0.1550     1.008
   463        H_edge      1  GOFLAKE  H463     463     0.1550     1.008
   464        H_edge      1  GOFLAKE  H464     464     0.1550     1.008
   465        H_edge      1  GOFLAKE  H465     465     0.1550     1.008
   466        H_edge      1  GOFLAKE  H466     466     0.1550     1.008
   467        H_edge      1  GOFLAKE  H467     467     0.1550     1.008
   468        H_edge      1  GOFLAKE  H468     468     0.1550     1.008
   469        H_edge      1  GOFLAKE  H469     469     0.1550     1.008
   470        H_edge      1  GOFLAKE  H470     470     0.1550     1.008
   471        H_edge      1  GOFLAKE  H471     471     0.1550     1.008
   472        H_edge      1  GOFLAKE  H472     472     0.1550     1.008
   473        H_edge      1  GOFLAKE  H473     473     0.1550     1.008
   474        H_edge      1  GOFLAKE  H474     474     0.1550     1.008
   475     O_epoxide      1  GOFLAKE  O475     475    -0.2449    15.999
   476    O_hydroxyl      1  GOFLAKE  O476     476    -0.4795    15.999
   477    H_hydroxyl      1  GOFLAKE  H477     477     0.3763     1.008
   478     O_epoxide      1  GOFLAKE  O478     478    -0.2449    15.999
   479    O_hydroxyl      1  GOFLAKE  O479     479    -0.4795    15.999
   480    H_hydroxyl      1  GOFLAKE  H480     480     0.3763     1.008
   481     O_epoxide      1  GOFLAKE  O481     481    -0.2449    15.999
   482    O_hydroxyl      1  GOFLAKE  O482     482    -0.4795    15.999
   483    H_hydroxyl      1  GOFLAKE  H483     483     0.3763     1.008
   484     O_epoxide      1  GOFLAKE  O484     484    -0.2449    15.999
   485    O_hydroxyl      1  GOFLAKE  O485     485    -0.4795    15.999
   486    H_hydroxyl      1  GOFLAKE  H486     486     0.3763     1.008
   487     O_epoxide      1  GOFLAKE  O487     487    -0.2449    15.999
   488    O_hydroxyl      1  GOFLAKE  O488     488    -0.4795    15.999
   489    H_hydroxyl      1  GOFLAKE  H489     489     0.3763     1.008
   490     O_epoxide      1  GOFLAKE  O490     490    -0.2449    15.999
   491    O_hydroxyl      1  GOFLAKE  O491     491    -0.4795    15.999
   492    H_hydroxyl      1  GOFLAKE  H492     492     0.3763     1.008
   493     O_epoxide      1  GOFLAKE  O493     493    -0.2449    15.999
   494    O_hydroxyl      1  GOFLAKE  O494     494    -0.4795    15.999
   495    H_hydroxyl      1  GOFLAKE  H495     495     0.3763     1.008
   496     O_epoxide      1  GOFLAKE  O496     496    -0.2449    15.999
   497    O_hydroxyl      1  GOFLAKE  O497     497    -0.4795    15.999
   498    H_hydroxyl      1  GOFLAKE  H498     498     0.3763     1.008
   499     O_epoxide      1  GOFLAKE  O499     499    -0.2449    15.999
   500    O_hydroxyl      1  GOFLAKE  O500     500    -0.4795    15.999
   501    H_hydroxyl      1  GOFLAKE  H501     501     0.3763     1.008
   502     O_epoxide      1  GOFLAKE  O502     502    -0.2449    15.999
   503    O_hydroxyl      1  GOFLAKE  O503     503    -0.4795    15.999
   504    H_hydroxyl      1  GOFLAKE  H504     504     0.3763     1.008
   505     O_epoxide      1  GOFLAKE  O505     505    -0.2449    15.999
   506    O_hydroxyl      1  GOFLAKE  O506     506    -0.4795    15.999
   507    H_hydroxyl      1  GOFLAKE  H507     507     0.3763     1.008
   508     O_epoxide      1  GOFLAKE  O508     508    -0.2449    15.999
   509    O_hydroxyl      1  GOFLAKE  O509     509    -0.4795    15.999
   510    H_hydroxyl      1  GOFLAKE  H510     510     0.3763     1.008
   511     O_epoxide      1  GOFLAKE  O511     511    -0.2449    15.999
   512    O_hydroxyl      1  GOFLAKE  O512     512    -0.4795    15.999
   513    H_hydroxyl      1  GOFLAKE  H513     513     0.3763     1.008
   514     O_epoxide      1  GOFLAKE  O514     514    -0.2449    15.999
   515    O_hydroxyl      1  GOFLAKE  O515     515    -0.4795    15.999
   516    H_hydroxyl      1  GOFLAKE  H516     516     0.3763     1.008
   517     O_epoxide      1  GOFLAKE  O517     517    -0.2449    15.999
   518    O_hydroxyl      1  GOFLAKE  O518     518    -0.4795    15.999
   519    H_hydroxyl      1  GOFLAKE  H519     519     0.3763     1.008
   520     O_epoxide      1  GOFLAKE  O520     520    -0.2449    15.999
   521    O_hydroxyl      1  GOFLAKE  O521     521    -0.4795    15.999
   522    H_hydroxyl      1  GOFLAKE  H522     522     0.3763     1.008
   523     O_epoxide      1  GOFLAKE  O523     523    -0.2449    15.999
   524    O_hydroxyl      1  GOFLAKE  O524     524    -0.4795    15.999
   525    H_hydroxyl      1  GOFLAKE  H525     525     0.3763     1.008
   526     O_epoxide      1  GOFLAKE  O526     526    -0.2449    15.999
   527    O_hydroxyl      1  GOFLAKE  O527     527    -0.4795    15.999
   528    H_hydroxyl      1  GOFLAKE  H528     528     0.3763     1.008
   529     O_epoxide      1  GOFLAKE  O529     529    -0.2449    15.999
   530    O_hydroxyl      1  GOFLAKE  O530     530    -0.4795    15.999
   531    H_hydroxyl      1  GOFLAKE  H531     531     0.3763     1.008
   532     O_epoxide      1  GOFLAKE  O532     532    -0.2449    15.999
   533    O_hydroxyl      1  GOFLAKE  O533     533    -0.4795    15.999
   534    H_hydroxyl      1  GOFLAKE  H534     534     0.3763     1.008
   535     O_epoxide      1  GOFLAKE  O535     535    -0.2449    15.999
   536    O_hydroxyl      1  GOFLAKE  O536     536    -0.4795    15.999
   537    H_hydroxyl      1  GOFLAKE  H537     537     0.3763     1.008
   538     O_epoxide      1  GOFLAKE  O538     538    -0.2449    15.999
   539    O_hydroxyl      1  GOFLAKE  O539     539    -0.4795    15.999
   540    H_hydroxyl      1  GOFLAKE  H540     540     0.3763     1.008
   541     O_epoxide      1  GOFLAKE  O541     541    -0.2449    15.999
   542    O_hydroxyl      1  GOFLAKE  O542     542    -0.4795    15.999
   543    H_hydroxyl      1  GOFLAKE  H543     543     0.3763     1.008
   544     O_epoxide      1  GOFLAKE  O544     544    -0.2449    15.999
   545    O_hydroxyl      1  GOFLAKE  O545     545    -0.4795    15.999
   546    H_hydroxyl      1  GOFLAKE  H546     546     0.3763     1.008
   547     O_epoxide      1  GOFLAKE  O547     547    -0.2449    15.999
   548    O_hydroxyl      1  GOFLAKE  O548     548    -0.4795    15.999
   549    H_hydroxyl      1  GOFLAKE  H549     549     0.3763     1.008
   550     O_epoxide      1  GOFLAKE  O550     550    -0.2449    15.999
   551    O_hydroxyl      1  GOFLAKE  O551     551    -0.4795    15.999
   552    H_hydroxyl      1  GOFLAKE  H552     552     0.3763     1.008

[ bonds ]
;   ai    aj  funct     r0(nm)    kb(kJ/mol/nm^2)
     1    14      1     0.14200        392459.0
     1    16      1     0.14200        392459.0
     1   419      1     0.10900        307105.0
     2    16      1     0.14200        392459.0
     2    18      1     0.14200        392459.0
     2   420      1     0.10900        307105.0
     3    18      1     0.14200        392459.0
     3    20      1     0.14200        392459.0
     3   421      1     0.10900        307105.0
     4    20      1     0.14200        392459.0
     4    22      1     0.14200        350000.0
     4   422      1     0.10900        307105.0
     5    22      1     0.14200        350000.0
     5    24      1     0.14200        392459.0
     5   423      1     0.10900        307105.0
     6    24      1     0.14200        392459.0
     6    26      1     0.14200        392459.0
     6   424      1     0.10900        307105.0
     7    26      1     0.14200        392459.0
     7    28      1     0.14200        392459.0
     7   425      1     0.10900        307105.0
     8    28      1     0.14200        392459.0
     8    30      1     0.14200        392459.0
     8   426      1     0.10900        307105.0
     9    30      1     0.14200        392459.0
     9    32      1     0.14200        392459.0
     9   427      1     0.10900        307105.0
    10    32      1     0.14200        392459.0
    10    34      1     0.14200        392459.0
    10   428      1     0.10900        307105.0
    11    34      1     0.14200        392459.0
    11    36      1     0.14200        392459.0
    11   429      1     0.10900        307105.0
    12    36      1     0.14200        392459.0
    12    38      1     0.14200        392459.0
    12   430      1     0.10900        307105.0
    13    38      1     0.14200        392459.0
    13    40      1     0.14200        392459.0
    13   431      1     0.10900        307105.0
    14    15      1     0.14200        350000.0
    14   432      1     0.10900        307105.0
    15    42      1     0.14200        350000.0
    15    44      1     0.14200        317984.0
    15   526      1     0.14376        313800.0
    16    17      1     0.14200        392459.0
    17    44      1     0.14200        392459.0
    17    46      1     0.14200        392459.0
    18    19      1     0.14200        392459.0
    19    46      1     0.14200        392459.0
    19    48      1     0.14200        392459.0
    20    21      1     0.14200        392459.0
    21    48      1     0.14200        392459.0
    21    50      1     0.14200        392459.0
    22    23      1     0.14200        392459.0
    22   530      1     0.14300        267776.0
    23    50      1     0.14200        392459.0
    23    52      1     0.14200        392459.0
    24    25      1     0.14200        392459.0
    25    52      1     0.14200        392459.0
    25    54      1     0.14200        392459.0
    26    27      1     0.14200        392459.0
    27    54      1     0.14200        392459.0
    27    56      1     0.14200        392459.0
    28    29      1     0.14200        392459.0
    29    56      1     0.14200        392459.0
    29    58      1     0.14200        392459.0
    30    31      1     0.14200        392459.0
    31    58      1     0.14200        392459.0
    31    60      1     0.14200        392459.0
    32    33      1     0.14200        392459.0
    33    60      1     0.14200        392459.0
    33    62      1     0.14200        392459.0
    34    35      1     0.14200        392459.0
    35    62      1     0.14200        392459.0
    35    64      1     0.14200        392459.0
    36    37      1     0.14200        392459.0
    37    64      1     0.14200        392459.0
    37    66      1     0.14200        392459.0
    38    39      1     0.14200        392459.0
    39    66      1     0.14200        392459.0
    39    68      1     0.14200        392459.0
    40    41      1     0.14200        392459.0
    40   433      1     0.10900        307105.0
    41    68      1     0.14200        392459.0
    41   434      1     0.10900        307105.0
    42    43      1     0.14200        350000.0
    42   435      1     0.10900        307105.0
    43    70      1     0.14200        350000.0
    43    72      1     0.14200        392459.0
    43   476      1     0.14300        267776.0
    44    45      1     0.14200        392459.0
    44   526      1     0.14376        313800.0
    45    72      1     0.14200        392459.0
    45    74      1     0.14200        392459.0
    46    47      1     0.14200        392459.0
    47    74      1     0.14200        392459.0
    47    76      1     0.14200        392459.0
    48    49      1     0.14200        392459.0
    49    76      1     0.14200        317984.0
    49    78      1     0.14200        392459.0
    49   520      1     0.14376        313800.0
    50    51      1     0.14200        392459.0
    51    78      1     0.14200        392459.0
    51    80      1     0.14200        392459.0
    52    53      1     0.14200        392459.0
    53    80      1     0.14200        317984.0
    53    82      1     0.14200        392459.0
    53   508      1     0.14376        313800.0
    54    55      1     0.14200        392459.0
    54   518      1     0.14300        267776.0
    55    82      1     0.14200        392459.0
    55    84      1     0.14200        392459.0
    56    57      1     0.14200        392459.0
    56   545      1     0.14300        267776.0
    57    84      1     0.14200        392459.0
    57    86      1     0.14200        392459.0
    58    59      1     0.14200        392459.0
    59    86      1     0.14200        392459.0
    59    88      1     0.14200        392459.0
    59   494      1     0.14300        267776.0
    60    61      1     0.14200        392459.0
    61    88      1     0.14200        392459.0
    61    90      1     0.14200        392459.0
    62    63      1     0.14200        392459.0
    63    90      1     0.14200        392459.0
    63    92      1     0.14200        392459.0
    64    65      1     0.14200        392459.0
    65    92      1     0.14200        392459.0
    65    94      1     0.14200        392459.0
    65   542      1     0.14300        267776.0
    66    67      1     0.14200        392459.0
    67    94      1     0.14200        392459.0
    67    96      1     0.14200        392459.0
    68    69      1     0.14200        392459.0
    69    96      1     0.14200        392459.0
    69   436      1     0.10900        307105.0
    70    71      1     0.14200        392459.0
    70   437      1     0.10900        307105.0
    71    98      1     0.14200        392459.0
    71   100      1     0.14200        392459.0
    72    73      1     0.14200        392459.0
    73   100      1     0.14200        392459.0
    73   102      1     0.14200        392459.0
    74    75      1     0.14200        392459.0
    75   102      1     0.14200        392459.0
    75   104      1     0.14200        392459.0
    75   521      1     0.14300        267776.0
    76    77      1     0.14200        392459.0
    76   520      1     0.14376        313800.0
    77   104      1     0.14200        392459.0
    77   106      1     0.14200        392459.0
    78    79      1     0.14200        392459.0
    79   106      1     0.14200        392459.0
    79   108      1     0.14200        392459.0
    80    81      1     0.14200        392459.0
    80   508      1     0.14376        313800.0
    81   108      1     0.14200        392459.0
    81   110      1     0.14200        392459.0
    82    83      1     0.14200        392459.0
    83   110      1     0.14200        392459.0
    83   112      1     0.14200        317984.0
    83   532      1     0.14376        313800.0
    84    85      1     0.14200        392459.0
    85   112      1     0.14200        392459.0
    85   114      1     0.14200        392459.0
    86    87      1     0.14200        392459.0
    87   114      1     0.14200        392459.0
    87   116      1     0.14200        392459.0
    88    89      1     0.14200        392459.0
    89   116      1     0.14200        392459.0
    89   118      1     0.14200        392459.0
    90    91      1     0.14200        392459.0
    91   118      1     0.14200        392459.0
    91   120      1     0.14200        392459.0
    92    93      1     0.14200        392459.0
    93   120      1     0.14200        392459.0
    93   122      1     0.14200        392459.0
    94    95      1     0.14200        392459.0
    95   122      1     0.14200        392459.0
    95   124      1     0.14200        392459.0
    96    97      1     0.14200        392459.0
    97   124      1     0.14200        392459.0
    97   438      1     0.10900        307105.0
    98    99      1     0.14200        392459.0
    98   439      1     0.10900        307105.0
    99   126      1     0.14200        392459.0
    99   128      1     0.14200        392459.0
   100   101      1     0.14200        392459.0
   101   128      1     0.14200        392459.0
   101   130      1     0.14200        392459.0
   102   103      1     0.14200        392459.0
   103   130      1     0.14200        392459.0
   103   132      1     0.14200        392459.0
   104   105      1     0.14200        392459.0
   105   132      1     0.14200        392459.0
   105   134      1     0.14200        392459.0
   105   524      1     0.14300        267776.0
   106   107      1     0.14200        392459.0
   107   134      1     0.14200        392459.0
   107   136      1     0.14200        392459.0
   108   109      1     0.14200        392459.0
   109   136      1     0.14200        392459.0
   109   138      1     0.14200        392459.0
   110   111      1     0.14200        392459.0
   111   138      1     0.14200        392459.0
   111   140      1     0.14200        392459.0
   112   113      1     0.14200        392459.0
   112   532      1     0.14376        313800.0
   113   140      1     0.14200        392459.0
   113   142      1     0.14200        392459.0
   114   115      1     0.14200        392459.0
   115   142      1     0.14200        392459.0
   115   144      1     0.14200        317984.0
   115   484      1     0.14376        313800.0
   116   117      1     0.14200        392459.0
   117   144      1     0.14200        392459.0
   117   146      1     0.14200        392459.0
   118   119      1     0.14200        392459.0
   119   146      1     0.14200        392459.0
   119   148      1     0.14200        392459.0
   120   121      1     0.14200        392459.0
   120   539      1     0.14300        267776.0
   121   148      1     0.14200        392459.0
   121   150      1     0.14200        392459.0
   122   123      1     0.14200        317984.0
   122   544      1     0.14376        313800.0
   123   150      1     0.14200        392459.0
   123   152      1     0.14200        392459.0
   123   544      1     0.14376        313800.0
   124   125      1     0.14200        392459.0
   125   152      1     0.14200        392459.0
   125   440      1     0.10900        307105.0
   126   127      1     0.14200        350000.0
   126   441      1     0.10900        307105.0
   127   154      1     0.14200        350000.0
   127   156      1     0.14200        392459.0
   127   548      1     0.14300        267776.0
   128   129      1     0.14200        392459.0
   129   156      1     0.14200        392459.0
   129   158      1     0.14200        392459.0
   130   131      1     0.14200        392459.0
   131   158      1     0.14200        392459.0
   131   160      1     0.14200        392459.0
   132   133      1     0.14200        392459.0
   133   160      1     0.14200        392459.0
   133   162      1     0.14200        392459.0
   134   135      1     0.14200        392459.0
   135   162      1     0.14200        392459.0
   135   164      1     0.14200        392459.0
   136   137      1     0.14200        392459.0
   137   164      1     0.14200        392459.0
   137   166      1     0.14200        392459.0
   138   139      1     0.14200        392459.0
   139   166      1     0.14200        392459.0
   139   168      1     0.14200        392459.0
   140   141      1     0.14200        392459.0
   141   168      1     0.14200        317984.0
   141   170      1     0.14200        392459.0
   141   541      1     0.14376        313800.0
   142   143      1     0.14200        392459.0
   143   170      1     0.14200        392459.0
   143   172      1     0.14200        392459.0
   144   145      1     0.14200        392459.0
   144   484      1     0.14376        313800.0
   145   172      1     0.14200        392459.0
   145   174      1     0.14200        392459.0
   146   147      1     0.14200        392459.0
   147   174      1     0.14200        317984.0
   147   176      1     0.14200        392459.0
   147   502      1     0.14376        313800.0
   148   149      1     0.14200        392459.0
   149   176      1     0.14200        392459.0
   149   178      1     0.14200        392459.0
   150   151      1     0.14200        392459.0
   151   178      1     0.14200        392459.0
   151   180      1     0.14200        392459.0
   152   153      1     0.14200        392459.0
   153   180      1     0.14200        392459.0
   153   442      1     0.10900        307105.0
   154   155      1     0.14200        350000.0
   154   443      1     0.10900        307105.0
   155   182      1     0.14200        350000.0
   155   184      1     0.14200        392459.0
   155   500      1     0.14300        267776.0
   156   157      1     0.14200        392459.0
   157   184      1     0.14200        392459.0
   157   186      1     0.14200        392459.0
   157   491      1     0.14300        267776.0
   158   159      1     0.14200        392459.0
   159   186      1     0.14200        392459.0
   159   188      1     0.14200        392459.0
   160   161      1     0.14200        317984.0
   160   517      1     0.14376        313800.0
   161   188      1     0.14200        392459.0
   161   190      1     0.14200        392459.0
   161   517      1     0.14376        313800.0
   162   163      1     0.14200        392459.0
   163   190      1     0.14200        392459.0
   163   192      1     0.14200        392459.0
   164   165      1     0.14200        392459.0
   165   192      1     0.14200        392459.0
   165   194      1     0.14200        392459.0
   166   167      1     0.14200        392459.0
   167   194      1     0.14200        317984.0
   167   196      1     0.14200        392459.0
   167   550      1     0.14376        313800.0
   168   169      1     0.14200        392459.0
   168   541      1     0.14376        313800.0
   169   196      1     0.14200        392459.0
   169   198      1     0.14200        392459.0
   170   171      1     0.14200        392459.0
   171   198      1     0.14200        392459.0
   171   200      1     0.14200        392459.0
   172   173      1     0.14200        392459.0
   173   200      1     0.14200        392459.0
   173   202      1     0.14200        392459.0
   174   175      1     0.14200        392459.0
   174   502      1     0.14376        313800.0
   175   202      1     0.14200        392459.0
   175   204      1     0.14200        392459.0
   176   177      1     0.14200        392459.0
   177   204      1     0.14200        392459.0
   177   206      1     0.14200        392459.0
   178   179      1     0.14200        317984.0
   178   487      1     0.14376        313800.0
   179   206      1     0.14200        392459.0
   179   208      1     0.14200        392459.0
   179   487      1     0.14376        313800.0
   180   181      1     0.14200        392459.0
   181   208      1     0.14200        392459.0
   181   444      1     0.10900        307105.0
   182   183      1     0.14200        392459.0
   182   445      1     0.10900        307105.0
   183   210      1     0.14200        392459.0
   183   212      1     0.14200        392459.0
   184   185      1     0.14200        392459.0
   185   212      1     0.14200        392459.0
   185   214      1     0.14200        392459.0
   186   187      1     0.14200        392459.0
   187   214      1     0.14200        392459.0
   187   216      1     0.14200        392459.0
   188   189      1     0.14200        392459.0
   189   216      1     0.14200        392459.0
   189   218      1     0.14200        392459.0
   190   191      1     0.14200        392459.0
   191   218      1     0.14200        317984.0
   191   220      1     0.14200        392459.0
   191   505      1     0.14376        313800.0
   192   193      1     0.14200        392459.0
   193   220      1     0.14200        392459.0
   193   222      1     0.14200        392459.0
   193   509      1     0.14300        267776.0
   194   195      1     0.14200        392459.0
   194   550      1     0.14376        313800.0
   195   222      1     0.14200        392459.0
   195   224      1     0.14200        392459.0
   196   197      1     0.14200        392459.0
   197   224      1     0.14200        317984.0
   197   226      1     0.14200        392459.0
   197   478      1     0.14376        313800.0
   198   199      1     0.14200        392459.0
   199   226      1     0.14200        392459.0
   199   228      1     0.14200        392459.0
   200   201      1     0.14200        317984.0
   200   547      1     0.14376        313800.0
   201   228      1     0.14200        392459.0
   201   230      1     0.14200        392459.0
   201   547      1     0.14376        313800.0
   202   203      1     0.14200        392459.0
   203   230      1     0.14200        392459.0
   203   232      1     0.14200        317984.0
   203   481      1     0.14376        313800.0
   204   205      1     0.14200        392459.0
   205   232      1     0.14200        392459.0
   205   234      1     0.14200        392459.0
   206   207      1     0.14200        392459.0
   207   234      1     0.14200        392459.0
   207   236      1     0.14200        392459.0
   208   209      1     0.14200        392459.0
   209   236      1     0.14200        392459.0
   209   446      1     0.10900        307105.0
   210   211      1     0.14200        392459.0
   210   447      1     0.10900        307105.0
   211   238      1     0.14200        392459.0
   211   240      1     0.14200        392459.0
   212   213      1     0.14200        392459.0
   213   240      1     0.14200        392459.0
   213   242      1     0.14200        392459.0
   214   215      1     0.14200        392459.0
   215   242      1     0.14200        392459.0
   215   244      1     0.14200        392459.0
   216   217      1     0.14200        392459.0
   217   244      1     0.14200        392459.0
   217   246      1     0.14200        392459.0
   218   219      1     0.14200        392459.0
   218   505      1     0.14376        313800.0
   219   246      1     0.14200        392459.0
   219   248      1     0.14200        392459.0
   220   221      1     0.14200        392459.0
   221   248      1     0.14200        392459.0
   221   250      1     0.14200        392459.0
   222   223      1     0.14200        392459.0
   223   250      1     0.14200        392459.0
   223   252      1     0.14200        392459.0
   224   225      1     0.14200        392459.0
   224   478      1     0.14376        313800.0
   225   252      1     0.14200        392459.0
   225   254      1     0.14200        392459.0
   226   227      1     0.14200        392459.0
   227   254      1     0.14200        392459.0
   227   256      1     0.14200        392459.0
   228   229      1     0.14200        392459.0
   229   256      1     0.14200        317984.0
   229   258      1     0.14200        392459.0
   229   523      1     0.14376        313800.0
   230   231      1     0.14200        392459.0
   231   258      1     0.14200        392459.0
   231   260      1     0.14200        392459.0
   232   233      1     0.14200        392459.0
   232   481      1     0.14376        313800.0
   233   260      1     0.14200        392459.0
   233   262      1     0.14200        392459.0
   234   235      1     0.14200        392459.0
   235   262      1     0.14200        392459.0
   235   264      1     0.14200        392459.0
   235   488      1     0.14300        267776.0
   236   237      1     0.14200        392459.0
   237   264      1     0.14200        392459.0
   237   448      1     0.10900        307105.0
   238   239      1     0.14200        392459.0
   238   449      1     0.10900        307105.0
   239   266      1     0.14200        392459.0
   239   268      1     0.14200        392459.0
   240   241      1     0.14200        392459.0
   240   479      1     0.14300        267776.0
   241   268      1     0.14200        392459.0
   241   270      1     0.14200        392459.0
   242   243      1     0.14200        392459.0
   243   270      1     0.14200        392459.0
   243   272      1     0.14200        392459.0
   244   245      1     0.14200        392459.0
   245   272      1     0.14200        392459.0
   245   274      1     0.14200        392459.0
   246   247      1     0.14200        392459.0
   247   274      1     0.14200        392459.0
   247   276      1     0.14200        392459.0
   248   249      1     0.14200        392459.0
   249   276      1     0.14200        392459.0
   249   278      1     0.14200        392459.0
   250   251      1     0.14200        317984.0
   250   490      1     0.14376        313800.0
   251   278      1     0.14200        392459.0
   251   280      1     0.14200        392459.0
   251   490      1     0.14376        313800.0
   252   253      1     0.14200        317984.0
   252   475      1     0.14376        313800.0
   253   280      1     0.14200        392459.0
   253   282      1     0.14200        392459.0
   253   475      1     0.14376        313800.0
   254   255      1     0.14200        392459.0
   255   282      1     0.14200        392459.0
   255   284      1     0.14200        392459.0
   256   257      1     0.14200        392459.0
   256   523      1     0.14376        313800.0
   257   284      1     0.14200        392459.0
   257   286      1     0.14200        392459.0
   258   259      1     0.14200        392459.0
   259   286      1     0.14200        317984.0
   259   288      1     0.14200        392459.0
   259   511      1     0.14376        313800.0
   260   261      1     0.14200        392459.0
   261   288      1     0.14200        392459.0
   261   290      1     0.14200        392459.0
   262   263      1     0.14200        392459.0
   263   290      1     0.14200        392459.0
   263   292      1     0.14200        392459.0
   264   265      1     0.14200        392459.0
   265   292      1     0.14200        392459.0
   265   450      1     0.10900        307105.0
   266   267      1     0.14200        392459.0
   266   451      1     0.10900        307105.0
   267   294      1     0.14200        392459.0
   267   296      1     0.14200        392459.0
   268   269      1     0.14200        317984.0
   268   529      1     0.14376        313800.0
   269   296      1     0.14200        392459.0
   269   298      1     0.14200        392459.0
   269   529      1     0.14376        313800.0
   270   271      1     0.14200        392459.0
   271   298      1     0.14200        392459.0
   271   300      1     0.14200        392459.0
   272   273      1     0.14200        392459.0
   273   300      1     0.14200        392459.0
   273   302      1     0.14200        392459.0
   274   275      1     0.14200        392459.0
   275   302      1     0.14200        392459.0
   275   304      1     0.14200        392459.0
   275   512      1     0.14300        267776.0
   276   277      1     0.14200        392459.0
   277   304      1     0.14200        392459.0
   277   306      1     0.14200        392459.0
   278   279      1     0.14200        392459.0
   279   306      1     0.14200        317984.0
   279   308      1     0.14200        392459.0
   279   514      1     0.14376        313800.0
   280   281      1     0.14200        392459.0
   281   308      1     0.14200        392459.0
   281   310      1     0.14200        392459.0
   282   283      1     0.14200        392459.0
   283   310      1     0.14200        392459.0
   283   312      1     0.14200        392459.0
   284   285      1     0.14200        392459.0
   285   312      1     0.14200        392459.0
   285   314      1     0.14200        392459.0
   286   287      1     0.14200        392459.0
   286   511      1     0.14376        313800.0
   287   314      1     0.14200        392459.0
   287   316      1     0.14200        392459.0
   288   289      1     0.14200        392459.0
   289   316      1     0.14200        392459.0
   289   318      1     0.14200        392459.0
   290   291      1     0.14200        392459.0
   290   497      1     0.14300        267776.0
   291   318      1     0.14200        392459.0
   291   320      1     0.14200        392459.0
   292   293      1     0.14200        392459.0
   293   320      1     0.14200        392459.0
   293   452      1     0.10900        307105.0
   294   295      1     0.14200        392459.0
   294   453      1     0.10900        307105.0
   295   322      1     0.14200        392459.0
   295   324      1     0.14200        392459.0
   296   297      1     0.14200        392459.0
   297   324      1     0.14200        392459.0
   297   326      1     0.14200        392459.0
   298   299      1     0.14200        392459.0
   299   326      1     0.14200        392459.0
   299   328      1     0.14200        392459.0
   299   485      1     0.14300        267776.0
   300   301      1     0.14200        392459.0
   301   328      1     0.14200        392459.0
   301   330      1     0.14200        392459.0
   302   303      1     0.14200        392459.0
   303   330      1     0.14200        392459.0
   303   332      1     0.14200        392459.0
   304   305      1     0.14200        392459.0
   305   332      1     0.14200        392459.0
   305   334      1     0.14200        392459.0
   306   307      1     0.14200        392459.0
   306   514      1     0.14376        313800.0
   307   334      1     0.14200        392459.0
   307   336      1     0.14200        392459.0
   308   309      1     0.14200        392459.0
   309   336      1     0.14200        392459.0
   309   338      1     0.14200        317984.0
   309   538      1     0.14376        313800.0
   310   311      1     0.14200        392459.0
   311   338      1     0.14200        392459.0
   311   340      1     0.14200        392459.0
   312   313      1     0.14200        392459.0
   313   340      1     0.14200        392459.0
   313   342      1     0.14200        392459.0
   313   515      1     0.14300        267776.0
   314   315      1     0.14200        392459.0
   315   342      1     0.14200        392459.0
   315   344      1     0.14200        392459.0
   316   317      1     0.14200        392459.0
   317   344      1     0.14200        392459.0
   317   346      1     0.14200        392459.0
   318   319      1     0.14200        392459.0
   319   346      1     0.14200        392459.0
   319   348      1     0.14200        392459.0
   320   321      1     0.14200        392459.0
   321   348      1     0.14200        350000.0
   321   454      1     0.10900        307105.0
   322   323      1     0.14200        392459.0
   322   455      1     0.10900        307105.0
   323   350      1     0.14200        392459.0
   323   352      1     0.14200        392459.0
   324   325      1     0.14200        392459.0
   325   352      1     0.14200        392459.0
   325   354      1     0.14200        392459.0
   325   506      1     0.14300        267776.0
   326   327      1     0.14200        392459.0
   327   354      1     0.14200        392459.0
   327   356      1     0.14200        392459.0
   328   329      1     0.14200        392459.0
   329   356      1     0.14200        392459.0
   329   358      1     0.14200        392459.0
   330   331      1     0.14200        392459.0
   331   358      1     0.14200        392459.0
   331   360      1     0.14200        392459.0
   332   333      1     0.14200        392459.0
   333   360      1     0.14200        392459.0
   333   362      1     0.14200        392459.0
   334   335      1     0.14200        392459.0
   335   362      1     0.14200        392459.0
   335   364      1     0.14200        392459.0
   336   337      1     0.14200        392459.0
   337   364      1     0.14200        392459.0
   337   366      1     0.14200        392459.0
   338   339      1     0.14200        392459.0
   338   538      1     0.14376        313800.0
   339   366      1     0.14200        392459.0
   339   368      1     0.14200        392459.0
   340   341      1     0.14200        392459.0
   341   368      1     0.14200        392459.0
   341   370      1     0.14200        392459.0
   342   343      1     0.14200        392459.0
   343   370      1     0.14200        392459.0
   343   372      1     0.14200        392459.0
   344   345      1     0.14200        392459.0
   345   372      1     0.14200        392459.0
   345   374      1     0.14200        392459.0
   346   347      1     0.14200        392459.0
   347   374      1     0.14200        392459.0
   347   376      1     0.14200        392459.0
   348   349      1     0.14200        350000.0
   348   503      1     0.14300        267776.0
   349   376      1     0.14200        392459.0
   349   456      1     0.10900        307105.0
   350   351      1     0.14200        392459.0
   350   457      1     0.10900        307105.0
   351   378      1     0.14200        392459.0
   351   380      1     0.14200        392459.0
   352   353      1     0.14200        392459.0
   353   380      1     0.14200        317984.0
   353   382      1     0.14200        392459.0
   353   493      1     0.14376        313800.0
   354   355      1     0.14200        392459.0
   355   382      1     0.14200        392459.0
   355   384      1     0.14200        392459.0
   356   357      1     0.14200        392459.0
   357   384      1     0.14200        392459.0
   357   386      1     0.14200        392459.0
   358   359      1     0.14200        392459.0
   359   386      1     0.14200        392459.0
   359   388      1     0.14200        392459.0
   360   361      1     0.14200        392459.0
   361   388      1     0.14200        392459.0
   361   390      1     0.14200        392459.0
   361   482      1     0.14300        267776.0
   362   363      1     0.14200        392459.0
   363   390      1     0.14200        392459.0
   363   392      1     0.14200        392459.0
   364   365      1     0.14200        392459.0
   365   392      1     0.14200        317984.0
   365   394      1     0.14200        392459.0
   365   535      1     0.14376        313800.0
   366   367      1     0.14200        392459.0
   367   394      1     0.14200        392459.0
   367   396      1     0.14200        317984.0
   367   496      1     0.14376        313800.0
   368   369      1     0.14200        392459.0
   368   533      1     0.14300        267776.0
   369   396      1     0.14200        392459.0
   369   398      1     0.14200        392459.0
   370   371      1     0.14200        392459.0
   371   398      1     0.14200        392459.0
   371   400      1     0.14200        392459.0
   372   373      1     0.14200        392459.0
   373   400      1     0.14200        392459.0
   373   402      1     0.14200        392459.0
   374   375      1     0.14200        317984.0
   374   499      1     0.14376        313800.0
   375   402      1     0.14200        392459.0
   375   404      1     0.14200        392459.0
   375   499      1     0.14376        313800.0
   376   377      1     0.14200        392459.0
   377   404      1     0.14200        392459.0
   377   458      1     0.10900        307105.0
   378   379      1     0.14200        392459.0
   378   459      1     0.10900        307105.0
   379   406      1     0.14200        392459.0
   379   460      1     0.10900        307105.0
   380   381      1     0.14200        392459.0
   380   493      1     0.14376        313800.0
   381   406      1     0.14200        392459.0
   381   407      1     0.14200        392459.0
   382   383      1     0.14200        392459.0
   383   407      1     0.14200        350000.0
   383   408      1     0.14200        350000.0
   383   551      1     0.14300        267776.0
   384   385      1     0.14200        392459.0
   385   408      1     0.14200        350000.0
   385   409      1     0.14200        350000.0
   385   536      1     0.14300        267776.0
   386   387      1     0.14200        392459.0
   387   409      1     0.14200        392459.0
   387   410      1     0.14200        392459.0
   388   389      1     0.14200        392459.0
   389   410      1     0.14200        392459.0
   389   411      1     0.14200        392459.0
   390   391      1     0.14200        392459.0
   391   411      1     0.14200        392459.0
   391   412      1     0.14200        392459.0
   392   393      1     0.14200        392459.0
   392   535      1     0.14376        313800.0
   393   412      1     0.14200        392459.0
   393   413      1     0.14200        392459.0
   394   395      1     0.14200        392459.0
   395   413      1     0.14200        392459.0
   395   414      1     0.14200        392459.0
   396   397      1     0.14200        392459.0
   396   496      1     0.14376        313800.0
   397   414      1     0.14200        392459.0
   397   415      1     0.14200        392459.0
   398   399      1     0.14200        392459.0
   399   415      1     0.14200        350000.0
   399   416      1     0.14200        350000.0
   399   527      1     0.14300        267776.0
   400   401      1     0.14200        392459.0
   401   416      1     0.14200        392459.0
   401   417      1     0.14200        392459.0
   402   403      1     0.14200        392459.0
   403   417      1     0.14200        392459.0
   403   418      1     0.14200        392459.0
   404   405      1     0.14200        392459.0
   405   418      1     0.14200        392459.0
   405   461      1     0.10900        307105.0
   406   462      1     0.10900        307105.0
   407   463      1     0.10900        307105.0
   408   464      1     0.10900        307105.0
   409   465      1     0.10900        307105.0
   410   466      1     0.10900        307105.0
   411   467      1     0.10900        307105.0
   412   468      1     0.10900        307105.0
   413   469      1     0.10900        307105.0
   414   470      1     0.10900        307105.0
   415   471      1     0.10900        307105.0
   416   472      1     0.10900        307105.0
   417   473      1     0.10900        307105.0
   418   474      1     0.10900        307105.0
   476   477      1     0.09600        462750.0
   479   480      1     0.09600        462750.0
   482   483      1     0.09600        462750.0
   485   486      1     0.09600        462750.0
   488   489      1     0.09600        462750.0
   491   492      1     0.09600        462750.0
   494   495      1     0.09600        462750.0
   497   498      1     0.09600        462750.0
   500   501      1     0.09600        462750.0
   503   504      1     0.09600        462750.0
   506   507      1     0.09600        462750.0
   509   510      1     0.09600        462750.0
   512   513      1     0.09600        462750.0
   515   516      1     0.09600        462750.0
   518   519      1     0.09600        462750.0
   518   546      1     0.13751        462750.0
   521   522      1     0.09600        462750.0
   524   525      1     0.09600        462750.0
   527   528      1     0.09600        462750.0
   530   531      1     0.09600        462750.0
   533   534      1     0.09600        462750.0
   536   537      1     0.09600        462750.0
   539   540      1     0.09600        462750.0
   542   543      1     0.09600        462750.0
   545   546      1     0.09600        462750.0
   548   549      1     0.09600        462750.0
   551   552      1     0.09600        462750.0

[ pairs ]
;   ai    aj  funct
    16    15      1
   419    17      1
    18    17      1
   420    19      1
    20    19      1
    18     4      1
    22    21      1
    20     5      1
   423     4      1
   423     6      1
    26    25      1
   424     7      1
    28     6      1
    26    29      1
    30    29      1
    28    31      1
   427     8      1
    30    10      1
   428     9      1
   428    35      1
    36    35      1
    34    12      1
   430    11      1
    36    13      1
    40    39      1
    38   433      1
     1    42      1
    14   435      1
    42    17      1
    42    44      1
     1    44      1
    16    47      1
     2    48      1
    48    47      1
    46    49      1
     4    48      1
    50    49      1
    48    51      1
     5    52      1
     5   531      1
    52    51      1
    22    53      1
     6    54      1
    24    23      1
    24    27      1
     7    56      1
    56    25      1
     8    58      1
    28    57      1
    28    59      1
     8    60      1
    60    29      1
    30    33      1
    10    62      1
    32    31      1
    32    35      1
    10    64      1
    64    33      1
    62    65      1
    11    64      1
    66    65      1
    64    39      1
    13    66      1
    68    37      1
    66    41      1
   433    68      1
   434    39      1
   435    72      1
    72   437      1
    70    73      1
    72   477      1
    17    74      1
    17    15      1
    44    73      1
    44    47      1
    19    76      1
    76    45      1
    19   520      1
   520    47      1
   520    51      1
    48    76      1
    23    80      1
    50    53      1
    82   508      1
    80    55      1
    82    80      1
    27    82      1
    27   519      1
    84    53      1
    82    85      1
    29    84      1
    29   546      1
    56    55      1
    84    87      1
    29    88      1
    58    57      1
    58    89      1
    58   495      1
    33    88      1
    60    89      1
    60    91      1
    33    90      1
    62    91      1
    35    92      1
    94    63      1
    92    67      1
    92   543      1
    37    96      1
    96    65      1
    66    69      1
    39    96      1
   436    67      1
   437   100      1
   100   439      1
    70   101      1
    43   100      1
   102   101      1
   100    75      1
    45   104      1
   104   103      1
   521    77      1
   104   522      1
    47   106      1
    47    49      1
   106    75      1
    76   107      1
    49   106      1
    78   107      1
   106    81      1
    53   108      1
    81    53      1
    80    79      1
   108   111      1
    53   110      1
   532    81      1
   110   532      1
   110   112      1
    55   112      1
   114    83      1
   112   115      1
    57   114      1
   116   115      1
   114   117      1
    61   118      1
    88    87      1
    88   119      1
    61   120      1
   120   119      1
    90   539      1
    65   122      1
    92   539      1
    92    95      1
    67   124      1
    94    93      1
    94    97      1
    69   438      1
    96   125      1
   439   128      1
   128   441      1
    98   101      1
    73   130      1
   130   129      1
   100   103      1
    75   130      1
   132   101      1
   130   133      1
    77   134      1
   134   133      1
   524   135      1
   134   525      1
   106   135      1
   106   109      1
    79   138      1
   138   137      1
    81   140      1
   110   109      1
   110   141      1
    83   140      1
   113    83      1
   142   141      1
   140   115      1
    85   144      1
   144   113      1
   484   145      1
   114   144      1
    87   146      1
   116   145      1
   116   147      1
    91   146      1
   118   147      1
   146   121      1
   539   148      1
    93   540      1
   148   151      1
    93   544      1
    93   123      1
   544   151      1
   544   153      1
   152   122      1
    97   152      1
   124   153      1
   441   156      1
   156   443      1
   548   157      1
   156   549      1
   101   156      1
   158   157      1
   156   159      1
   103   158      1
   130   159      1
   158   161      1
   105   162      1
   162   161      1
   160   163      1
   107   162      1
   134   163      1
   162   165      1
   109   164      1
   166   165      1
   164   167      1
   111   166      1
   166   141      1
   111   168      1
   140   139      1
   140   171      1
   140   168      1
   113   172      1
   172   171      1
   142   173      1
   115   172      1
   145   115      1
   174   143      1
   172   147      1
   119   502      1
   146   175      1
   146   149      1
   146   174      1
   121   176      1
   148   147      1
   123   178      1
   150   179      1
   178   153      1
   123   442      1
   152   151      1
   443   182      1
   154   183      1
   182   185      1
   182   501      1
   129   491      1
   491   155      1
   491   187      1
   186   492      1
   131   188      1
   158   187      1
   131   161      1
   190   159      1
   188   163      1
   188   160      1
   135   192      1
   162   193      1
   137   192      1
   194   163      1
   192   550      1
   137   196      1
   196   550      1
   166   169      1
   196   194      1
   139   198      1
   139   141      1
   198   167      1
   168   199      1
   143   200      1
   200   199      1
   198   201      1
   143   202      1
   202   201      1
   172   203      1
   147   202      1
   175   147      1
   204   203      1
   202   177      1
   149   204      1
   206   175      1
   204   179      1
   151   208      1
   151   179      1
   208   177      1
   487   181      1
   208   178      1
   153   208      1
   180   209      1
   155   210      1
   182   447      1
   210   185      1
   155   214      1
   214   183      1
   184   215      1
   157   216      1
   216   215      1
   186   217      1
   159   218      1
   188   217      1
   188   505      1
   163   505      1
   505   189      1
   505   221      1
   190   218      1
   163   222      1
   222   221      1
   192   195      1
   222   510      1
   550   222      1
   165   167      1
   194   193      1
   222   225      1
   167   226      1
   196   195      1
   196   227      1
   196   224      1
   171   226      1
   198   227      1
   198   229      1
   547   230      1
   173   201      1
   547   199      1
   547   231      1
   230   200      1
   175   232      1
   232   201      1
   230   233      1
   230   232      1
   177   232      1
   204   207      1
   179   236      1
   236   205      1
   206   237      1
   181   446      1
   446   207      1
   183   240      1
   240   449      1
   238   479      1
   212   479      1
   240   215      1
   185   244      1
   214   213      1
   214   245      1
   187   246      1
   246   215      1
   244   247      1
   189   246      1
   189   191      1
   218   247      1
   218   249      1
   191   250      1
   250   249      1
   248   251      1
   193   252      1
   252   251      1
   250   475      1
   195   252      1
   195   197      1
   254   475      1
   252   227      1
   197   256      1
   256   225      1
   226   257      1
   199   523      1
   523   227      1
   523   231      1
   258   256      1
   201   258      1
   230   229      1
   258   261      1
   203   262      1
   233   203      1
   232   231      1
   232   235      1
   207   262      1
   234   233      1
   234   237      1
   234   489      1
   207   448      1
   448   235      1
   449   268      1
   268   451      1
   238   241      1
   479   268      1
   241   480      1
   270   529      1
   268   243      1
   215   272      1
   242   241      1
   242   273      1
   215   274      1
   274   273      1
   244   275      1
   219   276      1
   246   275      1
   246   277      1
   219   278      1
   278   277      1
   490   278      1
   223   251      1
   280   279      1
   278   281      1
   278   250      1
   475   282      1
   223   253      1
   475   281      1
   475   283      1
   282   252      1
   225   284      1
   254   283      1
   254   285      1
   227   284      1
   227   229      1
   286   285      1
   284   511      1
   229   511      1
   258   511      1
   258   289      1
   258   286      1
   231   290      1
   290   289      1
   288   263      1
   235   292      1
   262   497      1
   262   293      1
   235   450      1
   264   293      1
   239   294      1
   266   453      1
   294   297      1
   241   529      1
   241   269      1
   529   267      1
   529   299      1
   298   268      1
   243   298      1
   270   299      1
   298   301      1
   243   302      1
   302   301      1
   300   303      1
   245   304      1
   274   303      1
   274   277      1
   274   513      1
   247   306      1
   306   275      1
   304   307      1
   251   308      1
   278   309      1
   278   306      1
   251   310      1
   310   309      1
   280   283      1
   253   310      1
   282   281      1
   310   285      1
   255   314      1
   284   283      1
   284   315      1
   511   314      1
   257   259      1
   316   315      1
   314   289      1
   259   318      1
   288   317      1
   288   319      1
   263   318      1
   263   498      1
   290   319      1
   290   293      1
   263   320      1
   292   291      1
   267   322      1
   294   323      1
   322   297      1
   267   324      1
   326   295      1
   324   327      1
   269   328      1
   328   327      1
   485   301      1
   328   486      1
   271   328      1
   300   299      1
   273   332      1
   302   333      1
   275   332      1
   334   333      1
   332   335      1
   277   336      1
   277   279      1
   336   335      1
   306   337      1
   281   336      1
   338   337      1
   336   311      1
   336   338      1
   281   340      1
   310   339      1
   310   313      1
   285   342      1
   342   311      1
   312   343      1
   342   516      1
   344   313      1
   342   345      1
   289   344      1
   316   345      1
   316   347      1
   289   346      1
   318   347      1
   318   321      1
   291   454      1
   454   319      1
   295   350      1
   352   351      1
   350   353      1
   297   354      1
   354   353      1
   354   507      1
   299   356      1
   356   325      1
   326   329      1
   301   356      1
   358   327      1
   356   359      1
   303   358      1
   360   359      1
   358   333      1
   305   360      1
   332   331      1
   332   363      1
   307   364      1
   364   333      1
   334   337      1
   307   366      1
   366   365      1
   336   367      1
   311   366      1
   311   309      1
   338   367      1
   338   341      1
   313   370      1
   340   339      1
   340   371      1
   342   371      1
   370   373      1
   315   372      1
   344   373      1
   344   499      1
   319   376      1
   346   499      1
   346   377      1
   321   376      1
   321   504      1
   456   377      1
   323   380      1
   380   379      1
   352   493      1
   352   355      1
   352   380      1
   327   382      1
   354   385      1
   329   384      1
   386   355      1
   384   359      1
   329   386      1
   358   357      1
   358   361      1
   331   390      1
   390   389      1
   360   363      1
   390   483      1
   333   390      1
   362   361      1
   362   535      1
   337   392      1
   394   535      1
   392   395      1
   394   392      1
   337   496      1
   496   395      1
   496   369      1
   394   396      1
   341   398      1
   341   534      1
   368   496      1
   368   371      1
   370   399      1
   398   401      1
   345   402      1
   402   401      1
   400   375      1
   499   404      1
   345   375      1
   404   373      1
   402   377      1
   404   374      1
   349   404      1
   376   405      1
   459   406      1
   378   462      1
   353   406      1
   351   353      1
   380   462      1
   406   383      1
   353   407      1
   382   381      1
   382   464      1
   382   552      1
   355   408      1
   384   383      1
   384   465      1
   384   537      1
   359   409      1
   410   465      1
   409   466      1
   361   410      1
   388   387      1
   388   391      1
   361   412      1
   390   393      1
   535   413      1
   363   365      1
   413   391      1
   392   469      1
   367   414      1
   414   469      1
   394   470      1
   496   414      1
   369   367      1
   396   470      1
   414   399      1
   371   527      1
   527   397      1
   527   472      1
   398   528      1
   373   417      1
   417   399      1
   400   403      1
   375   417      1
   418   401      1
   417   405      1
   377   418      1
   461   474      1
    54   545      1
    56   518      1

[ angles ]
;   ai    aj    ak  funct   theta0(deg)   k(kJ/mol/rad^2)
    16     1   419      1     120.000       320.0
    16     1    14      1     120.000       560.0
   419     1    14      1     120.000       320.0
    18     2   420      1     120.000       320.0
    18     2    16      1     120.000       560.0
   420     2    16      1     120.000       320.0
    18     3    20      1     120.000       560.0
    18     3   421      1     120.000       320.0
    20     3   421      1     120.000       320.0
    20     4    22      1     120.000       560.0
    20     4   422      1     120.000       320.0
    22     4   422      1     120.000       320.0
   423     5    24      1     120.000       320.0
   423     5    22      1     120.000       320.0
    24     5    22      1     120.000       560.0
    26     6   424      1     120.000       320.0
    26     6    24      1     120.000       560.0
   424     6    24      1     120.000       320.0
    28     7    26      1     120.000       560.0
    28     7   425      1     120.000       320.0
    26     7   425      1     120.000       320.0
    30     8    28      1     120.000       560.0
    30     8   426      1     120.000       320.0
    28     8   426      1     120.000       320.0
    30     9   427      1     120.000       320.0
    30     9    32      1     120.000       560.0
   427     9    32      1     120.000       320.0
   428    10    32      1     120.000       320.0
   428    10    34      1     120.000       320.0
    32    10    34      1     120.000       560.0
    34    11    36      1     120.000       560.0
    34    11   429      1     120.000       320.0
    36    11   429      1     120.000       320.0
    36    12   430      1     120.000       320.0
    36    12    38      1     120.000       560.0
   430    12    38      1     120.000       320.0
    38    13    40      1     120.000       560.0
    38    13   431      1     120.000       320.0
    40    13   431      1     120.000       320.0
    15    14     1      1     120.000       560.0
    15    14   432      1     120.000       320.0
     1    14   432      1     120.000       320.0
    42    15    14      1     120.000       560.0
    42    15   526      1     104.297       560.0
    42    15    44      1     120.000       560.0
    14    15   526      1     104.297       560.0
    14    15    44      1     120.000       560.0
   526    15    44      1      60.403       560.0
    17    16     1      1     120.000       560.0
    17    16     2      1     120.000       560.0
     1    16     2      1     120.000       560.0
    16    17    44      1     120.000       560.0
    16    17    46      1     120.000       560.0
    44    17    46      1     120.000       560.0
    19    18     2      1     120.000       560.0
    19    18     3      1     120.000       560.0
     2    18     3      1     120.000       560.0
    48    19    46      1     120.000       560.0
    48    19    18      1     120.000       560.0
    46    19    18      1     120.000       560.0
     4    20    21      1     120.000       560.0
     4    20     3      1     120.000       560.0
    21    20     3      1     120.000       560.0
    48    21    50      1     120.000       560.0
    48    21    20      1     120.000       560.0
    50    21    20      1     120.000       560.0
     5    22     4      1     120.000       560.0
     5    22   530      1      80.407       560.0
     5    22    23      1     120.000       560.0
     4    22   530      1     109.470       560.0
     4    22    23      1     120.000       560.0
   530    22    23      1      80.407       560.0
    52    23    22      1     120.000       560.0
    52    23    50      1     120.000       560.0
    22    23    50      1     120.000       560.0
     6    24    25      1     120.000       560.0
     6    24     5      1     120.000       560.0
    25    24     5      1     120.000       560.0
    24    25    54      1     120.000       560.0
    24    25    52      1     120.000       560.0
    54    25    52      1     120.000       560.0
     7    26     6      1     120.000       560.0
     7    26    27      1     120.000       560.0
     6    26    27      1     120.000       560.0
    56    27    26      1     120.000       560.0
    56    27    54      1     120.000       560.0
    26    27    54      1     120.000       560.0
    29    28     8      1     120.000       560.0
    29    28     7      1     120.000       560.0
     8    28     7      1     120.000       560.0
    28    29    58      1     120.000       560.0
    28    29    56      1     120.000       560.0
    58    29    56      1     120.000       560.0
     8    30    31      1     120.000       560.0
     8    30     9      1     120.000       560.0
    31    30     9      1     120.000       560.0
    60    31    30      1     120.000       560.0
    60    31    58      1     120.000       560.0
    30    31    58      1     120.000       560.0
    10    32     9      1     120.000       560.0
    10    32    33      1     120.000       560.0
     9    32    33      1     120.000       560.0
    32    33    62      1     120.000       560.0
    32    33    60      1     120.000       560.0
    62    33    60      1     120.000       560.0
    35    34    10      1     120.000       560.0
    35    34    11      1     120.000       560.0
    10    34    11      1     120.000       560.0
    64    35    62      1     120.000       560.0
    64    35    34      1     120.000       560.0
    62    35    34      1     120.000       560.0
    11    36    12      1     120.000       560.0
    11    36    37      1     120.000       560.0
    12    36    37      1     120.000       560.0
    64    37    66      1     120.000       560.0
    64    37    36      1     120.000       560.0
    66    37    36      1     120.000       560.0
    13    38    39      1     120.000       560.0
    13    38    12      1     120.000       560.0
    39    38    12      1     120.000       560.0
    66    39    68      1     120.000       560.0
    66    39    38      1     120.000       560.0
    68    39    38      1     120.000       560.0
   433    40    13      1     120.000       320.0
   433    40    41      1     120.000       320.0
    13    40    41      1     120.000       560.0
    68    41   434      1     120.000       320.0
    68    41    40      1     120.000       560.0
   434    41    40      1     120.000       320.0
   435    42    15      1     120.000       320.0
   435    42    43      1     120.000       320.0
    15    42    43      1     120.000       560.0
    72    43    70      1     120.000       560.0
    72    43    42      1     120.000       560.0
    72    43   476      1      80.407       560.0
    70    43    42      1     120.000       560.0
    70    43   476      1      80.407       560.0
    42    43   476      1     109.470       560.0
    17    44    15      1     120.000       560.0
    17    44    45      1     120.000       560.0
    17    44   526      1     104.297       560.0
    15    44    45      1     120.000       560.0
    15    44   526      1      60.403       560.0
    45    44   526      1     104.297       560.0
    44    45    74      1     120.000       560.0
    44    45    72      1     120.000       560.0
    74    45    72      1     120.000       560.0
    47    46    19      1     120.000       560.0
    47    46    17      1     120.000       560.0
    19    46    17      1     120.000       560.0
    76    47    46      1     120.000       560.0
    76    47    74      1     120.000       560.0
    46    47    74      1     120.000       560.0
    49    48    19      1     120.000       560.0
    49    48    21      1     120.000       560.0
    19    48    21      1     120.000       560.0
   520    49    48      1     104.297       560.0
   520    49    78      1     104.297       560.0
   520    49    76      1      60.403       560.0
    48    49    78      1     120.000       560.0
    48    49    76      1     120.000       560.0
    78    49    76      1     120.000       560.0
    51    50    23      1     120.000       560.0
    51    50    21      1     120.000       560.0
    23    50    21      1     120.000       560.0
    50    51    80      1     120.000       560.0
    50    51    78      1     120.000       560.0
    80    51    78      1     120.000       560.0
    23    52    53      1     120.000       560.0
    23    52    25      1     120.000       560.0
    53    52    25      1     120.000       560.0
    80    53    82      1     120.000       560.0
    80    53   508      1      60.403       560.0
    80    53    52      1     120.000       560.0
    82    53   508      1     104.297       560.0
    82    53    52      1     120.000       560.0
   508    53    52      1     104.297       560.0
    27    54    25      1     120.000       560.0
    27    54    55      1     120.000       560.0
    27    54   518      1      80.407       560.0
    25    54    55      1     120.000       560.0
    25    54   518      1     109.470       560.0
    55    54   518      1      80.407       560.0
    82    55    84      1     120.000       560.0
    82    55    54      1     120.000       560.0
    84    55    54      1     120.000       560.0
    29    56    57      1     120.000       560.0
    29    56    27      1     120.000       560.0
    29    56   545      1      80.407       560.0
    57    56    27      1     120.000       560.0
    57    56   545      1     109.470       560.0
    27    56   545      1      80.407       560.0
    84    57    56      1     120.000       560.0
    84    57    86      1     120.000       560.0
    56    57    86      1     120.000       560.0
    29    58    59      1     120.000       560.0
    29    58    31      1     120.000       560.0
    59    58    31      1     120.000       560.0
    58    59    88      1     120.000       560.0
    58    59   494      1     109.470       560.0
    58    59    86      1     120.000       560.0
    88    59   494      1      80.407       560.0
    88    59    86      1     120.000       560.0
   494    59    86      1      80.407       560.0
    33    60    31      1     120.000       560.0
    33    60    61      1     120.000       560.0
    31    60    61      1     120.000       560.0
    60    61    88      1     120.000       560.0
    60    61    90      1     120.000       560.0
    88    61    90      1     120.000       560.0
    33    62    35      1     120.000       560.0
    33    62    63      1     120.000       560.0
    35    62    63      1     120.000       560.0
    62    63    90      1     120.000       560.0
    62    63    92      1     120.000       560.0
    90    63    92      1     120.000       560.0
    65    64    35      1     120.000       560.0
    65    64    37      1     120.000       560.0
    35    64    37      1     120.000       560.0
    92    65    94      1     120.000       560.0
    92    65    64      1     120.000       560.0
    92    65   542      1     109.470       560.0
    94    65    64      1     120.000       560.0
    94    65   542      1      80.407       560.0
    64    65   542      1      80.407       560.0
    37    66    39      1     120.000       560.0
    37    66    67      1     120.000       560.0
    39    66    67      1     120.000       560.0
    96    67    66      1     120.000       560.0
    96    67    94      1     120.000       560.0
    66    67    94      1     120.000       560.0
    39    68    41      1     120.000       560.0
    39    68    69      1     120.000       560.0
    41    68    69      1     120.000       560.0
    96    69   436      1     120.000       320.0
    96    69    68      1     120.000       560.0
   436    69    68      1     120.000       320.0
   437    70    71      1     120.000       320.0
   437    70    43      1     120.000       320.0
    71    70    43      1     120.000       560.0
   100    71    70      1     120.000       560.0
   100    71    98      1     120.000       560.0
    70    71    98      1     120.000       560.0
    73    72    43      1     120.000       560.0
    73    72    45      1     120.000       560.0
    43    72    45      1     120.000       560.0
   100    73   102      1     120.000       560.0
   100    73    72      1     120.000       560.0
   102    73    72      1     120.000       560.0
    45    74    47      1     120.000       560.0
    45    74    75      1     120.000       560.0
    47    74    75      1     120.000       560.0
   104    75   521      1      80.407       560.0
   104    75   102      1     120.000       560.0
   104    75    74      1     120.000       560.0
   521    75   102      1      80.407       560.0
   521    75    74      1     109.470       560.0
   102    75    74      1     120.000       560.0
    47    76    49      1     120.000       560.0
    47    76   520      1     104.297       560.0
    47    76    77      1     120.000       560.0
    49    76   520      1      60.403       560.0
    49    76    77      1     120.000       560.0
   520    76    77      1     104.297       560.0
   106    77    76      1     120.000       560.0
   106    77   104      1     120.000       560.0
    76    77   104      1     120.000       560.0
    49    78    51      1     120.000       560.0
    49    78    79      1     120.000       560.0
    51    78    79      1     120.000       560.0
   106    79    78      1     120.000       560.0
   106    79   108      1     120.000       560.0
    78    79   108      1     120.000       560.0
    53    80   508      1      60.403       560.0
    53    80    81      1     120.000       560.0
    53    80    51      1     120.000       560.0
   508    80    81      1     104.297       560.0
   508    80    51      1     104.297       560.0
    81    80    51      1     120.000       560.0
   108    81    80      1     120.000       560.0
   108    81   110      1     120.000       560.0
    80    81   110      1     120.000       560.0
    53    82    55      1     120.000       560.0
    53    82    83      1     120.000       560.0
    55    82    83      1     120.000       560.0
   110    83   532      1     104.297       560.0
   110    83   112      1     120.000       560.0
   110    83    82      1     120.000       560.0
   532    83   112      1      60.403       560.0
   532    83    82      1     104.297       560.0
   112    83    82      1     120.000       560.0
    55    84    85      1     120.000       560.0
    55    84    57      1     120.000       560.0
    85    84    57      1     120.000       560.0
   112    85   114      1     120.000       560.0
   112    85    84      1     120.000       560.0
   114    85    84      1     120.000       560.0
    57    86    87      1     120.000       560.0
    57    86    59      1     120.000       560.0
    87    86    59      1     120.000       560.0
   114    87   116      1     120.000       560.0
   114    87    86      1     120.000       560.0
   116    87    86      1     120.000       560.0
    89    88    61      1     120.000       560.0
    89    88    59      1     120.000       560.0
    61    88    59      1     120.000       560.0
    88    89   118      1     120.000       560.0
    88    89   116      1     120.000       560.0
   118    89   116      1     120.000       560.0
    91    90    61      1     120.000       560.0
    91    90    63      1     120.000       560.0
    61    90    63      1     120.000       560.0
   120    91    90      1     120.000       560.0
   120    91   118      1     120.000       560.0
    90    91   118      1     120.000       560.0
    65    92    63      1     120.000       560.0
    65    92    93      1     120.000       560.0
    63    92    93      1     120.000       560.0
    92    93   122      1     120.000       560.0
    92    93   120      1     120.000       560.0
   122    93   120      1     120.000       560.0
    67    94    65      1     120.000       560.0
    67    94    95      1     120.000       560.0
    65    94    95      1     120.000       560.0
    94    95   124      1     120.000       560.0
    94    95   122      1     120.000       560.0
   124    95   122      1     120.000       560.0
    69    96    67      1     120.000       560.0
    69    96    97      1     120.000       560.0
    67    96    97      1     120.000       560.0
    96    97   438      1     120.000       320.0
    96    97   124      1     120.000       560.0
   438    97   124      1     120.000       320.0
   439    98    99      1     120.000       320.0
   439    98    71      1     120.000       320.0
    99    98    71      1     120.000       560.0
   128    99    98      1     120.000       560.0
   128    99   126      1     120.000       560.0
    98    99   126      1     120.000       560.0
   101   100    73      1     120.000       560.0
   101   100    71      1     120.000       560.0
    73   100    71      1     120.000       560.0
   130   101   100      1     120.000       560.0
   130   101   128      1     120.000       560.0
   100   101   128      1     120.000       560.0
    75   102   103      1     120.000       560.0
    75   102    73      1     120.000       560.0
   103   102    73      1     120.000       560.0
   130   103   132      1     120.000       560.0
   130   103   102      1     120.000       560.0
   132   103   102      1     120.000       560.0
    77   104    75      1     120.000       560.0
    77   104   105      1     120.000       560.0
    75   104   105      1     120.000       560.0
   134   105   524      1      80.407       560.0
   134   105   104      1     120.000       560.0
   134   105   132      1     120.000       560.0
   524   105   104      1      80.407       560.0
   524   105   132      1     109.470       560.0
   104   105   132      1     120.000       560.0
   107   106    77      1     120.000       560.0
   107   106    79      1     120.000       560.0
    77   106    79      1     120.000       560.0
   106   107   134      1     120.000       560.0
   106   107   136      1     120.000       560.0
   134   107   136      1     120.000       560.0
    79   108    81      1     120.000       560.0
    79   108   109      1     120.000       560.0
    81   108   109      1     120.000       560.0
   138   109   108      1     120.000       560.0
   138   109   136      1     120.000       560.0
   108   109   136      1     120.000       560.0
    81   110   111      1     120.000       560.0
    81   110    83      1     120.000       560.0
   111   110    83      1     120.000       560.0
   110   111   140      1     120.000       560.0
   110   111   138      1     120.000       560.0
   140   111   138      1     120.000       560.0
    83   112   532      1      60.403       560.0
    83   112   113      1     120.000       560.0
    83   112    85      1     120.000       560.0
   532   112   113      1     104.297       560.0
   532   112    85      1     104.297       560.0
   113   112    85      1     120.000       560.0
   140   113   142      1     120.000       560.0
   140   113   112      1     120.000       560.0
   142   113   112      1     120.000       560.0
   115   114    85      1     120.000       560.0
   115   114    87      1     120.000       560.0
    85   114    87      1     120.000       560.0
   144   115   484      1      60.403       560.0
   144   115   114      1     120.000       560.0
   144   115   142      1     120.000       560.0
   484   115   114      1     104.297       560.0
   484   115   142      1     104.297       560.0
   114   115   142      1     120.000       560.0
    87   116   117      1     120.000       560.0
    87   116    89      1     120.000       560.0
   117   116    89      1     120.000       560.0
   116   117   146      1     120.000       560.0
   116   117   144      1     120.000       560.0
   146   117   144      1     120.000       560.0
   119   118    91      1     120.000       560.0
   119   118    89      1     120.000       560.0
    91   118    89      1     120.000       560.0
   146   119   118      1     120.000       560.0
   146   119   148      1     120.000       560.0
   118   119   148      1     120.000       560.0
   539   120    93      1      80.407       560.0
   539   120    91      1      80.407       560.0
   539   120   121      1     109.470       560.0
    93   120    91      1     120.000       560.0
    93   120   121      1     120.000       560.0
    91   120   121      1     120.000       560.0
   148   121   120      1     120.000       560.0
   148   121   150      1     120.000       560.0
   120   121   150      1     120.000       560.0
    93   122    95      1     120.000       560.0
    93   122   544      1     104.297       560.0
    93   122   123      1     120.000       560.0
    95   122   544      1     104.297       560.0
    95   122   123      1     120.000       560.0
   544   122   123      1      60.403       560.0
   544   123   152      1     104.297       560.0
   544   123   150      1     104.297       560.0
   544   123   122      1      60.403       560.0
   152   123   150      1     120.000       560.0
   152   123   122      1     120.000       560.0
   150   123   122      1     120.000       560.0
    97   124   125      1     120.000       560.0
    97   124    95      1     120.000       560.0
   125   124    95      1     120.000       560.0
   124   125   152      1     120.000       560.0
   124   125   440      1     120.000       320.0
   152   125   440      1     120.000       320.0
   441   126    99      1     120.000       320.0
   441   126   127      1     120.000       320.0
    99   126   127      1     120.000       560.0
   156   127   548      1      80.407       560.0
   156   127   154      1     120.000       560.0
   156   127   126      1     120.000       560.0
   548   127   154      1     109.470       560.0
   548   127   126      1      80.407       560.0
   154   127   126      1     120.000       560.0
   101   128   129      1     120.000       560.0
   101   128    99      1     120.000       560.0
   129   128    99      1     120.000       560.0
   156   129   158      1     120.000       560.0
   156   129   128      1     120.000       560.0
   158   129   128      1     120.000       560.0
   103   130   101      1     120.000       560.0
   103   130   131      1     120.000       560.0
   101   130   131      1     120.000       560.0
   158   131   130      1     120.000       560.0
   158   131   160      1     120.000       560.0
   130   131   160      1     120.000       560.0
   133   132   105      1     120.000       560.0
   133   132   103      1     120.000       560.0
   105   132   103      1     120.000       560.0
   162   133   160      1     120.000       560.0
   162   133   132      1     120.000       560.0
   160   133   132      1     120.000       560.0
   135   134   107      1     120.000       560.0
   135   134   105      1     120.000       560.0
   107   134   105      1     120.000       560.0
   162   135   134      1     120.000       560.0
   162   135   164      1     120.000       560.0
   134   135   164      1     120.000       560.0
   109   136   137      1     120.000       560.0
   109   136   107      1     120.000       560.0
   137   136   107      1     120.000       560.0
   164   137   166      1     120.000       560.0
   164   137   136      1     120.000       560.0
   166   137   136      1     120.000       560.0
   111   138   109      1     120.000       560.0
   111   138   139      1     120.000       560.0
   109   138   139      1     120.000       560.0
   166   139   138      1     120.000       560.0
   166   139   168      1     120.000       560.0
   138   139   168      1     120.000       560.0
   141   140   111      1     120.000       560.0
   141   140   113      1     120.000       560.0
   111   140   113      1     120.000       560.0
   140   141   168      1     120.000       560.0
   140   141   541      1     104.297       560.0
   140   141   170      1     120.000       560.0
   168   141   541      1      60.403       560.0
   168   141   170      1     120.000       560.0
   541   141   170      1     104.297       560.0
   113   142   115      1     120.000       560.0
   113   142   143      1     120.000       560.0
   115   142   143      1     120.000       560.0
   172   143   142      1     120.000       560.0
   172   143   170      1     120.000       560.0
   142   143   170      1     120.000       560.0
   145   144   115      1     120.000       560.0
   145   144   117      1     120.000       560.0
   145   144   484      1     104.297       560.0
   115   144   117      1     120.000       560.0
   115   144   484      1      60.403       560.0
   117   144   484      1     104.297       560.0
   172   145   174      1     120.000       560.0
   172   145   144      1     120.000       560.0
   174   145   144      1     120.000       560.0
   147   146   119      1     120.000       560.0
   147   146   117      1     120.000       560.0
   119   146   117      1     120.000       560.0
   146   147   502      1     104.297       560.0
   146   147   176      1     120.000       560.0
   146   147   174      1     120.000       560.0
   502   147   176      1     104.297       560.0
   502   147   174      1      60.403       560.0
   176   147   174      1     120.000       560.0
   121   148   119      1     120.000       560.0
   121   148   149      1     120.000       560.0
   119   148   149      1     120.000       560.0
   148   149   176      1     120.000       560.0
   148   149   178      1     120.000       560.0
   176   149   178      1     120.000       560.0
   151   150   123      1     120.000       560.0
   151   150   121      1     120.000       560.0
   123   150   121      1     120.000       560.0
   178   151   150      1     120.000       560.0
   178   151   180      1     120.000       560.0
   150   151   180      1     120.000       560.0
   153   152   123      1     120.000       560.0
   153   152   125      1     120.000       560.0
   123   152   125      1     120.000       560.0
   152   153   442      1     120.000       320.0
   152   153   180      1     120.000       560.0
   442   153   180      1     120.000       320.0
   443   154   155      1     120.000       320.0
   443   154   127      1     120.000       320.0
   155   154   127      1     120.000       560.0
   182   155   154      1     120.000       560.0
   182   155   500      1      80.407       560.0
   182   155   184      1     120.000       560.0
   154   155   500      1     109.470       560.0
   154   155   184      1     120.000       560.0
   500   155   184      1      80.407       560.0
   157   156   129      1     120.000       560.0
   157   156   127      1     120.000       560.0
   129   156   127      1     120.000       560.0
   491   157   186      1     109.470       560.0
   491   157   156      1      80.407       560.0
   491   157   184      1      80.407       560.0
   186   157   156      1     120.000       560.0
   186   157   184      1     120.000       560.0
   156   157   184      1     120.000       560.0
   159   158   131      1     120.000       560.0
   159   158   129      1     120.000       560.0
   131   158   129      1     120.000       560.0
   158   159   188      1     120.000       560.0
   158   159   186      1     120.000       560.0
   188   159   186      1     120.000       560.0
   161   160   131      1     120.000       560.0
   161   160   133      1     120.000       560.0
   161   160   517      1      60.403       560.0
   131   160   133      1     120.000       560.0
   131   160   517      1     104.297       560.0
   133   160   517      1     104.297       560.0
   188   161   190      1     120.000       560.0
   188   161   160      1     120.000       560.0
   188   161   517      1     104.297       560.0
   190   161   160      1     120.000       560.0
   190   161   517      1     104.297       560.0
   160   161   517      1      60.403       560.0
   163   162   135      1     120.000       560.0
   163   162   133      1     120.000       560.0
   135   162   133      1     120.000       560.0
   162   163   192      1     120.000       560.0
   162   163   190      1     120.000       560.0
   192   163   190      1     120.000       560.0
   165   164   137      1     120.000       560.0
   165   164   135      1     120.000       560.0
   137   164   135      1     120.000       560.0
   192   165   194      1     120.000       560.0
   192   165   164      1     120.000       560.0
   194   165   164      1     120.000       560.0
   137   166   167      1     120.000       560.0
   137   166   139      1     120.000       560.0
   167   166   139      1     120.000       560.0
   196   167   166      1     120.000       560.0
   196   167   194      1     120.000       560.0
   196   167   550      1     104.297       560.0
   166   167   194      1     120.000       560.0
   166   167   550      1     104.297       560.0
   194   167   550      1      60.403       560.0
   139   168   141      1     120.000       560.0
   139   168   541      1     104.297       560.0
   139   168   169      1     120.000       560.0
   141   168   541      1      60.403       560.0
   141   168   169      1     120.000       560.0
   541   168   169      1     104.297       560.0
   198   169   168      1     120.000       560.0
   198   169   196      1     120.000       560.0
   168   169   196      1     120.000       560.0
   171   170   143      1     120.000       560.0
   171   170   141      1     120.000       560.0
   143   170   141      1     120.000       560.0
   200   171   198      1     120.000       560.0
   200   171   170      1     120.000       560.0
   198   171   170      1     120.000       560.0
   143   172   173      1     120.000       560.0
   143   172   145      1     120.000       560.0
   173   172   145      1     120.000       560.0
   202   173   172      1     120.000       560.0
   202   173   200      1     120.000       560.0
   172   173   200      1     120.000       560.0
   147   174   175      1     120.000       560.0
   147   174   502      1      60.403       560.0
   147   174   145      1     120.000       560.0
   175   174   502      1     104.297       560.0
   175   174   145      1     120.000       560.0
   502   174   145      1     104.297       560.0
   202   175   204      1     120.000       560.0
   202   175   174      1     120.000       560.0
   204   175   174      1     120.000       560.0
   149   176   147      1     120.000       560.0
   149   176   177      1     120.000       560.0
   147   176   177      1     120.000       560.0
   204   177   206      1     120.000       560.0
   204   177   176      1     120.000       560.0
   206   177   176      1     120.000       560.0
   151   178   179      1     120.000       560.0
   151   178   487      1     104.297       560.0
   151   178   149      1     120.000       560.0
   179   178   487      1      60.403       560.0
   179   178   149      1     120.000       560.0
   487   178   149      1     104.297       560.0
   208   179   487      1     104.297       560.0
   208   179   206      1     120.000       560.0
   208   179   178      1     120.000       560.0
   487   179   206      1     104.297       560.0
   487   179   178      1      60.403       560.0
   206   179   178      1     120.000       560.0
   153   180   151      1     120.000       560.0
   153   180   181      1     120.000       560.0
   151   180   181      1     120.000       560.0
   208   181   180      1     120.000       560.0
   208   181   444      1     120.000       320.0
   180   181   444      1     120.000       320.0
   155   182   183      1     120.000       560.0
   155   182   445      1     120.000       320.0
   183   182   445      1     120.000       320.0
   210   183   182      1     120.000       560.0
   210   183   212      1     120.000       560.0
   182   183   212      1     120.000       560.0
   155   184   185      1     120.000       560.0
   155   184   157      1     120.000       560.0
   185   184   157      1     120.000       560.0
   214   185   184      1     120.000       560.0
   214   185   212      1     120.000       560.0
   184   185   212      1     120.000       560.0
   187   186   157      1     120.000       560.0
   187   186   159      1     120.000       560.0
   157   186   159      1     120.000       560.0
   216   187   186      1     120.000       560.0
   216   187   214      1     120.000       560.0
   186   187   214      1     120.000       560.0
   159   188   161      1     120.000       560.0
   159   188   189      1     120.000       560.0
   161   188   189      1     120.000       560.0
   188   189   218      1     120.000       560.0
   188   189   216      1     120.000       560.0
   218   189   216      1     120.000       560.0
   163   190   161      1     120.000       560.0
   163   190   191      1     120.000       560.0
   161   190   191      1     120.000       560.0
   505   191   190      1     104.297       560.0
   505   191   218      1      60.403       560.0
   505   191   220      1     104.297       560.0
   190   191   218      1     120.000       560.0
   190   191   220      1     120.000       560.0
   218   191   220      1     120.000       560.0
   163   192   193      1     120.000       560.0
   163   192   165      1     120.000       560.0
   193   192   165      1     120.000       560.0
   222   193   192      1     120.000       560.0
   222   193   220      1     120.000       560.0
   222   193   509      1      80.407       560.0
   192   193   220      1     120.000       560.0
   192   193   509      1      80.407       560.0
   220   193   509      1     109.470       560.0
   550   194   165      1     104.297       560.0
   550   194   167      1      60.403       560.0
   550   194   195      1     104.297       560.0
   165   194   167      1     120.000       560.0
   165   194   195      1     120.000       560.0
   167   194   195      1     120.000       560.0
   222   195   194      1     120.000       560.0
   222   195   224      1     120.000       560.0
   194   195   224      1     120.000       560.0
   167   196   169      1     120.000       560.0
   167   196   197      1     120.000       560.0
   169   196   197      1     120.000       560.0
   196   197   226      1     120.000       560.0
   196   197   224      1     120.000       560.0
   196   197   478      1     104.297       560.0
   226   197   224      1     120.000       560.0
   226   197   478      1     104.297       560.0
   224   197   478      1      60.403       560.0
   199   198   171      1     120.000       560.0
   199   198   169      1     120.000       560.0
   171   198   169      1     120.000       560.0
   198   199   226      1     120.000       560.0
   198   199   228      1     120.000       560.0
   226   199   228      1     120.000       560.0
   201   200   547      1      60.403       560.0
   201   200   173      1     120.000       560.0
   201   200   171      1     120.000       560.0
   547   200   173      1     104.297       560.0
   547   200   171      1     104.297       560.0
   173   200   171      1     120.000       560.0
   547   201   200      1      60.403       560.0
   547   201   230      1     104.297       560.0
   547   201   228      1     104.297       560.0
   200   201   230      1     120.000       560.0
   200   201   228      1     120.000       560.0
   230   201   228      1     120.000       560.0
   203   202   175      1     120.000       560.0
   203   202   173      1     120.000       560.0
   175   202   173      1     120.000       560.0
   232   203   230      1     120.000       560.0
   232   203   481      1      60.403       560.0
   232   203   202      1     120.000       560.0
   230   203   481      1     104.297       560.0
   230   203   202      1     120.000       560.0
   481   203   202      1     104.297       560.0
   177   204   175      1     120.000       560.0
   177   204   205      1     120.000       560.0
   175   204   205      1     120.000       560.0
   204   205   232      1     120.000       560.0
   204   205   234      1     120.000       560.0
   232   205   234      1     120.000       560.0
   179   206   177      1     120.000       560.0
   179   206   207      1     120.000       560.0
   177   206   207      1     120.000       560.0
   236   207   206      1     120.000       560.0
   236   207   234      1     120.000       560.0
   206   207   234      1     120.000       560.0
   181   208   209      1     120.000       560.0
   181   208   179      1     120.000       560.0
   209   208   179      1     120.000       560.0
   446   209   208      1     120.000       320.0
   446   209   236      1     120.000       320.0
   208   209   236      1     120.000       560.0
   183   210   447      1     120.000       320.0
   183   210   211      1     120.000       560.0
   447   210   211      1     120.000       320.0
   240   211   238      1     120.000       560.0
   240   211   210      1     120.000       560.0
   238   211   210      1     120.000       560.0
   183   212   185      1     120.000       560.0
   183   212   213      1     120.000       560.0
   185   212   213      1     120.000       560.0
   240   213   212      1     120.000       560.0
   240   213   242      1     120.000       560.0
   212   213   242      1     120.000       560.0
   215   214   185      1     120.000       560.0
   215   214   187      1     120.000       560.0
   185   214   187      1     120.000       560.0
   214   215   244      1     120.000       560.0
   214   215   242      1     120.000       560.0
   244   215   242      1     120.000       560.0
   217   216   187      1     120.000       560.0
   217   216   189      1     120.000       560.0
   187   216   189      1     120.000       560.0
   246   217   244      1     120.000       560.0
   246   217   216      1     120.000       560.0
   244   217   216      1     120.000       560.0
   189   218   505      1     104.297       560.0
   189   218   191      1     120.000       560.0
   189   218   219      1     120.000       560.0
   505   218   191      1      60.403       560.0
   505   218   219      1     104.297       560.0
   191   218   219      1     120.000       560.0
   218   219   246      1     120.000       560.0
   218   219   248      1     120.000       560.0
   246   219   248      1     120.000       560.0
   221   220   191      1     120.000       560.0
   221   220   193      1     120.000       560.0
   191   220   193      1     120.000       560.0
   250   221   248      1     120.000       560.0
   250   221   220      1     120.000       560.0
   248   221   220      1     120.000       560.0
   193   222   195      1     120.000       560.0
   193   222   223      1     120.000       560.0
   195   222   223      1     120.000       560.0
   252   223   250      1     120.000       560.0
   252   223   222      1     120.000       560.0
   250   223   222      1     120.000       560.0
   195   224   225      1     120.000       560.0
   195   224   478      1     104.297       560.0
   195   224   197      1     120.000       560.0
   225   224   478      1     104.297       560.0
   225   224   197      1     120.000       560.0
   478   224   197      1      60.403       560.0
   252   225   254      1     120.000       560.0
   252   225   224      1     120.000       560.0
   254   225   224      1     120.000       560.0
   227   226   197      1     120.000       560.0
   227   226   199      1     120.000       560.0
   197   226   199      1     120.000       560.0
   256   227   226      1     120.000       560.0
   256   227   254      1     120.000       560.0
   226   227   254      1     120.000       560.0
   199   228   229      1     120.000       560.0
   199   228   201      1     120.000       560.0
   229   228   201      1     120.000       560.0
   523   229   258      1     104.297       560.0
   523   229   256      1      60.403       560.0
   523   229   228      1     104.297       560.0
   258   229   256      1     120.000       560.0
   258   229   228      1     120.000       560.0
   256   229   228      1     120.000       560.0
   201   230   231      1     120.000       560.0
   201   230   203      1     120.000       560.0
   231   230   203      1     120.000       560.0
   258   231   230      1     120.000       560.0
   258   231   260      1     120.000       560.0
   230   231   260      1     120.000       560.0
   203   232   233      1     120.000       560.0
   203   232   481      1      60.403       560.0
   203   232   205      1     120.000       560.0
   233   232   481      1     104.297       560.0
   233   232   205      1     120.000       560.0
   481   232   205      1     104.297       560.0
   232   233   262      1     120.000       560.0
   232   233   260      1     120.000       560.0
   262   233   260      1     120.000       560.0
   207   234   205      1     120.000       560.0
   207   234   235      1     120.000       560.0
   205   234   235      1     120.000       560.0
   234   235   262      1     120.000       560.0
   234   235   488      1     109.470       560.0
   234   235   264      1     120.000       560.0
   262   235   488      1      80.407       560.0
   262   235   264      1     120.000       560.0
   488   235   264      1      80.407       560.0
   207   236   237      1     120.000       560.0
   207   236   209      1     120.000       560.0
   237   236   209      1     120.000       560.0
   448   237   236      1     120.000       320.0
   448   237   264      1     120.000       320.0
   236   237   264      1     120.000       560.0
   449   238   239      1     120.000       320.0
   449   238   211      1     120.000       320.0
   239   238   211      1     120.000       560.0
   268   239   238      1     120.000       560.0
   268   239   266      1     120.000       560.0
   238   239   266      1     120.000       560.0
   479   240   241      1     109.470       560.0
   479   240   211      1      80.407       560.0
   479   240   213      1      80.407       560.0
   241   240   211      1     120.000       560.0
   241   240   213      1     120.000       560.0
   211   240   213      1     120.000       560.0
   268   241   270      1     120.000       560.0
   268   241   240      1     120.000       560.0
   270   241   240      1     120.000       560.0
   215   242   213      1     120.000       560.0
   215   242   243      1     120.000       560.0
   213   242   243      1     120.000       560.0
   242   243   272      1     120.000       560.0
   242   243   270      1     120.000       560.0
   272   243   270      1     120.000       560.0
   215   244   245      1     120.000       560.0
   215   244   217      1     120.000       560.0
   245   244   217      1     120.000       560.0
   274   245   244      1     120.000       560.0
   274   245   272      1     120.000       560.0
   244   245   272      1     120.000       560.0
   247   246   219      1     120.000       560.0
   247   246   217      1     120.000       560.0
   219   246   217      1     120.000       560.0
   246   247   276      1     120.000       560.0
   246   247   274      1     120.000       560.0
   276   247   274      1     120.000       560.0
   249   248   219      1     120.000       560.0
   249   248   221      1     120.000       560.0
   219   248   221      1     120.000       560.0
   278   249   248      1     120.000       560.0
   278   249   276      1     120.000       560.0
   248   249   276      1     120.000       560.0
   251   250   490      1      60.403       560.0
   251   250   223      1     120.000       560.0
   251   250   221      1     120.000       560.0
   490   250   223      1     104.297       560.0
   490   250   221      1     104.297       560.0
   223   250   221      1     120.000       560.0
   278   251   280      1     120.000       560.0
   278   251   490      1     104.297       560.0
   278   251   250      1     120.000       560.0
   280   251   490      1     104.297       560.0
   280   251   250      1     120.000       560.0
   490   251   250      1      60.403       560.0
   475   252   223      1     104.297       560.0
   475   252   225      1     104.297       560.0
   475   252   253      1      60.403       560.0
   223   252   225      1     120.000       560.0
   223   252   253      1     120.000       560.0
   225   252   253      1     120.000       560.0
   475   253   252      1      60.403       560.0
   475   253   282      1     104.297       560.0
   475   253   280      1     104.297       560.0
   252   253   282      1     120.000       560.0
   252   253   280      1     120.000       560.0
   282   253   280      1     120.000       560.0
   225   254   227      1     120.000       560.0
   225   254   255      1     120.000       560.0
   227   254   255      1     120.000       560.0
   254   255   284      1     120.000       560.0
   254   255   282      1     120.000       560.0
   284   255   282      1     120.000       560.0
   227   256   257      1     120.000       560.0
   227   256   229      1     120.000       560.0
   227   256   523      1     104.297       560.0
   257   256   229      1     120.000       560.0
   257   256   523      1     104.297       560.0
   229   256   523      1      60.403       560.0
   284   257   286      1     120.000       560.0
   284   257   256      1     120.000       560.0
   286   257   256      1     120.000       560.0
   229   258   231      1     120.000       560.0
   229   258   259      1     120.000       560.0
   231   258   259      1     120.000       560.0
   258   259   511      1     104.297       560.0
   258   259   286      1     120.000       560.0
   258   259   288      1     120.000       560.0
   511   259   286      1      60.403       560.0
   511   259   288      1     104.297       560.0
   286   259   288      1     120.000       560.0
   231   260   261      1     120.000       560.0
   231   260   233      1     120.000       560.0
   261   260   233      1     120.000       560.0
   290   261   288      1     120.000       560.0
   290   261   260      1     120.000       560.0
   288   261   260      1     120.000       560.0
   235   262   233      1     120.000       560.0
   235   262   263      1     120.000       560.0
   233   262   263      1     120.000       560.0
   262   263   292      1     120.000       560.0
   262   263   290      1     120.000       560.0
   292   263   290      1     120.000       560.0
   235   264   237      1     120.000       560.0
   235   264   265      1     120.000       560.0
   237   264   265      1     120.000       560.0
   264   265   450      1     120.000       320.0
   264   265   292      1     120.000       560.0
   450   265   292      1     120.000       320.0
   239   266   451      1     120.000       320.0
   239   266   267      1     120.000       560.0
   451   266   267      1     120.000       320.0
   294   267   266      1     120.000       560.0
   294   267   296      1     120.000       560.0
   266   267   296      1     120.000       560.0
   241   268   529      1     104.297       560.0
   241   268   269      1     120.000       560.0
   241   268   239      1     120.000       560.0
   529   268   269      1      60.403       560.0
   529   268   239      1     104.297       560.0
   269   268   239      1     120.000       560.0
   529   269   298      1     104.297       560.0
   529   269   296      1     104.297       560.0
   529   269   268      1      60.403       560.0
   298   269   296      1     120.000       560.0
   298   269   268      1     120.000       560.0
   296   269   268      1     120.000       560.0
   243   270   241      1     120.000       560.0
   243   270   271      1     120.000       560.0
   241   270   271      1     120.000       560.0
   298   271   270      1     120.000       560.0
   298   271   300      1     120.000       560.0
   270   271   300      1     120.000       560.0
   273   272   243      1     120.000       560.0
   273   272   245      1     120.000       560.0
   243   272   245      1     120.000       560.0
   302   273   300      1     120.000       560.0
   302   273   272      1     120.000       560.0
   300   273   272      1     120.000       560.0
   275   274   245      1     120.000       560.0
   275   274   247      1     120.000       560.0
   245   274   247      1     120.000       560.0
   274   275   304      1     120.000       560.0
   274   275   302      1     120.000       560.0
   274   275   512      1     109.470       560.0
   304   275   302      1     120.000       560.0
   304   275   512      1      80.407       560.0
   302   275   512      1      80.407       560.0
   277   276   247      1     120.000       560.0
   277   276   249      1     120.000       560.0
   247   276   249      1     120.000       560.0
   306   277   304      1     120.000       560.0
   306   277   276      1     120.000       560.0
   304   277   276      1     120.000       560.0
   251   278   279      1     120.000       560.0
   251   278   249      1     120.000       560.0
   279   278   249      1     120.000       560.0
   278   279   308      1     120.000       560.0
   278   279   514      1     104.297       560.0
   278   279   306      1     120.000       560.0
   308   279   514      1     104.297       560.0
   308   279   306      1     120.000       560.0
   514   279   306      1      60.403       560.0
   281   280   251      1     120.000       560.0
   281   280   253      1     120.000       560.0
   251   280   253      1     120.000       560.0
   310   281   280      1     120.000       560.0
   310   281   308      1     120.000       560.0
   280   281   308      1     120.000       560.0
   283   282   253      1     120.000       560.0
   283   282   255      1     120.000       560.0
   253   282   255      1     120.000       560.0
   310   283   282      1     120.000       560.0
   310   283   312      1     120.000       560.0
   282   283   312      1     120.000       560.0
   285   284   255      1     120.000       560.0
   285   284   257      1     120.000       560.0
   255   284   257      1     120.000       560.0
   284   285   314      1     120.000       560.0
   284   285   312      1     120.000       560.0
   314   285   312      1     120.000       560.0
   511   286   259      1      60.403       560.0
   511   286   257      1     104.297       560.0
   511   286   287      1     104.297       560.0
   259   286   257      1     120.000       560.0
   259   286   287      1     120.000       560.0
   257   286   287      1     120.000       560.0
   314   287   316      1     120.000       560.0
   314   287   286      1     120.000       560.0
   316   287   286      1     120.000       560.0
   289   288   259      1     120.000       560.0
   289   288   261      1     120.000       560.0
   259   288   261      1     120.000       560.0
   288   289   318      1     120.000       560.0
   288   289   316      1     120.000       560.0
   318   289   316      1     120.000       560.0
   263   290   497      1      80.407       560.0
   263   290   261      1     120.000       560.0
   263   290   291      1     120.000       560.0
   497   290   261      1      80.407       560.0
   497   290   291      1     109.470       560.0
   261   290   291      1     120.000       560.0
   290   291   318      1     120.000       560.0
   290   291   320      1     120.000       560.0
   318   291   320      1     120.000       560.0
   293   292   263      1     120.000       560.0
   293   292   265      1     120.000       560.0
   263   292   265      1     120.000       560.0
   292   293   320      1     120.000       560.0
   292   293   452      1     120.000       320.0
   320   293   452      1     120.000       320.0
   267   294   453      1     120.000       320.0
   267   294   295      1     120.000       560.0
   453   294   295      1     120.000       320.0
   322   295   294      1     120.000       560.0
   322   295   324      1     120.000       560.0
   294   295   324      1     120.000       560.0
   267   296   297      1     120.000       560.0
   267   296   269      1     120.000       560.0
   297   296   269      1     120.000       560.0
   324   297   326      1     120.000       560.0
   324   297   296      1     120.000       560.0
   326   297   296      1     120.000       560.0
   299   298   269      1     120.000       560.0
   299   298   271      1     120.000       560.0
   269   298   271      1     120.000       560.0
   328   299   485      1      80.407       560.0
   328   299   298      1     120.000       560.0
   328   299   326      1     120.000       560.0
   485   299   298      1     109.470       560.0
   485   299   326      1      80.407       560.0
   298   299   326      1     120.000       560.0
   301   300   271      1     120.000       560.0
   301   300   273      1     120.000       560.0
   271   300   273      1     120.000       560.0
   300   301   328      1     120.000       560.0
   300   301   330      1     120.000       560.0
   328   301   330      1     120.000       560.0
   303   302   273      1     120.000       560.0
   303   302   275      1     120.000       560.0
   273   302   275      1     120.000       560.0
   302   303   332      1     120.000       560.0
   302   303   330      1     120.000       560.0
   332   303   330      1     120.000       560.0
   275   304   277      1     120.000       560.0
   275   304   305      1     120.000       560.0
   277   304   305      1     120.000       560.0
   332   305   334      1     120.000       560.0
   332   305   304      1     120.000       560.0
   334   305   304      1     120.000       560.0
   277   306   307      1     120.000       560.0
   277   306   514      1     104.297       560.0
   277   306   279      1     120.000       560.0
   307   306   514      1     104.297       560.0
   307   306   279      1     120.000       560.0
   514   306   279      1      60.403       560.0
   336   307   306      1     120.000       560.0
   336   307   334      1     120.000       560.0
   306   307   334      1     120.000       560.0
   309   308   281      1     120.000       560.0
   309   308   279      1     120.000       560.0
   281   308   279      1     120.000       560.0
   336   309   338      1     120.000       560.0
   336   309   538      1     104.297       560.0
   336   309   308      1     120.000       560.0
   338   309   538      1      60.403       560.0
   338   309   308      1     120.000       560.0
   538   309   308      1     104.297       560.0
   281   310   283      1     120.000       560.0
   281   310   311      1     120.000       560.0
   283   310   311      1     120.000       560.0
   310   311   340      1     120.000       560.0
   310   311   338      1     120.000       560.0
   340   311   338      1     120.000       560.0
   285   312   283      1     120.000       560.0
   285   312   313      1     120.000       560.0
   283   312   313      1     120.000       560.0
   342   313   312      1     120.000       560.0
   342   313   340      1     120.000       560.0
   342   313   515      1      80.407       560.0
   312   313   340      1     120.000       560.0
   312   313   515      1      80.407       560.0
   340   313   515      1     109.470       560.0
   315   314   285      1     120.000       560.0
   315   314   287      1     120.000       560.0
   285   314   287      1     120.000       560.0
   342   315   344      1     120.000       560.0
   342   315   314      1     120.000       560.0
   344   315   314      1     120.000       560.0
   289   316   317      1     120.000       560.0
   289   316   287      1     120.000       560.0
   317   316   287      1     120.000       560.0
   316   317   344      1     120.000       560.0
   316   317   346      1     120.000       560.0
   344   317   346      1     120.000       560.0
   319   318   289      1     120.000       560.0
   319   318   291      1     120.000       560.0
   289   318   291      1     120.000       560.0
   318   319   346      1     120.000       560.0
   318   319   348      1     120.000       560.0
   346   319   348      1     120.000       560.0
   291   320   293      1     120.000       560.0
   291   320   321      1     120.000       560.0
   293   320   321      1     120.000       560.0
   454   321   320      1     120.000       320.0
   454   321   348      1     120.000       320.0
   320   321   348      1     120.000       560.0
   295   322   323      1     120.000       560.0
   295   322   455      1     120.000       320.0
   323   322   455      1     120.000       320.0
   350   323   352      1     120.000       560.0
   350   323   322      1     120.000       560.0
   352   323   322      1     120.000       560.0
   297   324   295      1     120.000       560.0
   297   324   325      1     120.000       560.0
   295   324   325      1     120.000       560.0
   354   325   324      1     120.000       560.0
   354   325   506      1     109.470       560.0
   354   325   352      1     120.000       560.0
   324   325   506      1      80.407       560.0
   324   325   352      1     120.000       560.0
   506   325   352      1      80.407       560.0
   327   326   299      1     120.000       560.0
   327   326   297      1     120.000       560.0
   299   326   297      1     120.000       560.0
   356   327   326      1     120.000       560.0
   356   327   354      1     120.000       560.0
   326   327   354      1     120.000       560.0
   301   328   299      1     120.000       560.0
   301   328   329      1     120.000       560.0
   299   328   329      1     120.000       560.0
   356   329   358      1     120.000       560.0
   356   329   328      1     120.000       560.0
   358   329   328      1     120.000       560.0
   303   330   301      1     120.000       560.0
   303   330   331      1     120.000       560.0
   301   330   331      1     120.000       560.0
   358   331   360      1     120.000       560.0
   358   331   330      1     120.000       560.0
   360   331   330      1     120.000       560.0
   333   332   305      1     120.000       560.0
   333   332   303      1     120.000       560.0
   305   332   303      1     120.000       560.0
   332   333   360      1     120.000       560.0
   332   333   362      1     120.000       560.0
   360   333   362      1     120.000       560.0
   335   334   307      1     120.000       560.0
   335   334   305      1     120.000       560.0
   307   334   305      1     120.000       560.0
   364   335   334      1     120.000       560.0
   364   335   362      1     120.000       560.0
   334   335   362      1     120.000       560.0
   337   336   307      1     120.000       560.0
   337   336   309      1     120.000       560.0
   307   336   309      1     120.000       560.0
   366   337   336      1     120.000       560.0
   366   337   364      1     120.000       560.0
   336   337   364      1     120.000       560.0
   311   338   339      1     120.000       560.0
   311   338   309      1     120.000       560.0
   311   338   538      1     104.297       560.0
   339   338   309      1     120.000       560.0
   339   338   538      1     104.297       560.0
   309   338   538      1      60.403       560.0
   338   339   366      1     120.000       560.0
   338   339   368      1     120.000       560.0
   366   339   368      1     120.000       560.0
   313   340   311      1     120.000       560.0
   313   340   341      1     120.000       560.0
   311   340   341      1     120.000       560.0
   340   341   370      1     120.000       560.0
   340   341   368      1     120.000       560.0
   370   341   368      1     120.000       560.0
   313   342   343      1     120.000       560.0
   313   342   315      1     120.000       560.0
   343   342   315      1     120.000       560.0
   370   343   342      1     120.000       560.0
   370   343   372      1     120.000       560.0
   342   343   372      1     120.000       560.0
   345   344   315      1     120.000       560.0
   345   344   317      1     120.000       560.0
   315   344   317      1     120.000       560.0
   344   345   372      1     120.000       560.0
   344   345   374      1     120.000       560.0
   372   345   374      1     120.000       560.0
   347   346   319      1     120.000       560.0
   347   346   317      1     120.000       560.0
   319   346   317      1     120.000       560.0
   346   347   376      1     120.000       560.0
   346   347   374      1     120.000       560.0
   376   347   374      1     120.000       560.0
   321   348   319      1     120.000       560.0
   321   348   349      1     120.000       560.0
   321   348   503      1     109.470       560.0
   319   348   349      1     120.000       560.0
   319   348   503      1      80.407       560.0
   349   348   503      1      80.407       560.0
   376   349   456      1     120.000       320.0
   376   349   348      1     120.000       560.0
   456   349   348      1     120.000       320.0
   323   350   351      1     120.000       560.0
   323   350   457      1     120.000       320.0
   351   350   457      1     120.000       320.0
   380   351   350      1     120.000       560.0
   380   351   378      1     120.000       560.0
   350   351   378      1     120.000       560.0
   353   352   323      1     120.000       560.0
   353   352   325      1     120.000       560.0
   323   352   325      1     120.000       560.0
   352   353   380      1     120.000       560.0
   352   353   382      1     120.000       560.0
   352   353   493      1     104.297       560.0
   380   353   382      1     120.000       560.0
   380   353   493      1      60.403       560.0
   382   353   493      1     104.297       560.0
   327   354   325      1     120.000       560.0
   327   354   355      1     120.000       560.0
   325   354   355      1     120.000       560.0
   354   355   382      1     120.000       560.0
   354   355   384      1     120.000       560.0
   382   355   384      1     120.000       560.0
   329   356   327      1     120.000       560.0
   329   356   357      1     120.000       560.0
   327   356   357      1     120.000       560.0
   384   357   386      1     120.000       560.0
   384   357   356      1     120.000       560.0
   386   357   356      1     120.000       560.0
   359   358   329      1     120.000       560.0
   359   358   331      1     120.000       560.0
   329   358   331      1     120.000       560.0
   358   359   386      1     120.000       560.0
   358   359   388      1     120.000       560.0
   386   359   388      1     120.000       560.0
   331   360   333      1     120.000       560.0
   331   360   361      1     120.000       560.0
   333   360   361      1     120.000       560.0
   390   361   360      1     120.000       560.0
   390   361   482      1      80.407       560.0
   390   361   388      1     120.000       560.0
   360   361   482      1      80.407       560.0
   360   361   388      1     120.000       560.0
   482   361   388      1     109.470       560.0
   333   362   363      1     120.000       560.0
   333   362   335      1     120.000       560.0
   363   362   335      1     120.000       560.0
   362   363   390      1     120.000       560.0
   362   363   392      1     120.000       560.0
   390   363   392      1     120.000       560.0
   337   364   365      1     120.000       560.0
   337   364   335      1     120.000       560.0
   365   364   335      1     120.000       560.0
   392   365   394      1     120.000       560.0
   392   365   364      1     120.000       560.0
   392   365   535      1      60.403       560.0
   394   365   364      1     120.000       560.0
   394   365   535      1     104.297       560.0
   364   365   535      1     104.297       560.0
   367   366   337      1     120.000       560.0
   367   366   339      1     120.000       560.0
   337   366   339      1     120.000       560.0
   496   367   394      1     104.297       560.0
   496   367   366      1     104.297       560.0
   496   367   396      1      60.403       560.0
   394   367   366      1     120.000       560.0
   394   367   396      1     120.000       560.0
   366   367   396      1     120.000       560.0
   341   368   339      1     120.000       560.0
   341   368   533      1      80.407       560.0
   341   368   369      1     120.000       560.0
   339   368   533      1      80.407       560.0
   339   368   369      1     120.000       560.0
   533   368   369      1     109.470       560.0
   368   369   398      1     120.000       560.0
   368   369   396      1     120.000       560.0
   398   369   396      1     120.000       560.0
   371   370   341      1     120.000       560.0
   371   370   343      1     120.000       560.0
   341   370   343      1     120.000       560.0
   398   371   370      1     120.000       560.0
   398   371   400      1     120.000       560.0
   370   371   400      1     120.000       560.0
   373   372   345      1     120.000       560.0
   373   372   343      1     120.000       560.0
   345   372   343      1     120.000       560.0
   402   373   400      1     120.000       560.0
   402   373   372      1     120.000       560.0
   400   373   372      1     120.000       560.0
   499   374   345      1     104.297       560.0
   499   374   347      1     104.297       560.0
   499   374   375      1      60.403       560.0
   345   374   347      1     120.000       560.0
   345   374   375      1     120.000       560.0
   347   374   375      1     120.000       560.0
   404   375   402      1     120.000       560.0
   404   375   374      1     120.000       560.0
   404   375   499      1     104.297       560.0
   402   375   374      1     120.000       560.0
   402   375   499      1     104.297       560.0
   374   375   499      1      60.403       560.0
   377   376   349      1     120.000       560.0
   377   376   347      1     120.000       560.0
   349   376   347      1     120.000       560.0
   404   377   376      1     120.000       560.0
   404   377   458      1     120.000       320.0
   376   377   458      1     120.000       320.0
   379   378   459      1     120.000       320.0
   379   378   351      1     120.000       560.0
   459   378   351      1     120.000       320.0
   378   379   406      1     120.000       560.0
   378   379   460      1     120.000       320.0
   406   379   460      1     120.000       320.0
   353   380   493      1      60.403       560.0
   353   380   351      1     120.000       560.0
   353   380   381      1     120.000       560.0
   493   380   351      1     104.297       560.0
   493   380   381      1     104.297       560.0
   351   380   381      1     120.000       560.0
   406   381   380      1     120.000       560.0
   406   381   407      1     120.000       560.0
   380   381   407      1     120.000       560.0
   353   382   355      1     120.000       560.0
   353   382   383      1     120.000       560.0
   355   382   383      1     120.000       560.0
   382   383   407      1     120.000       560.0
   382   383   408      1     120.000       560.0
   382   383   551      1     109.470       560.0
   407   383   408      1     120.000       560.0
   407   383   551      1      80.407       560.0
   408   383   551      1      80.407       560.0
   355   384   385      1     120.000       560.0
   355   384   357      1     120.000       560.0
   385   384   357      1     120.000       560.0
   384   385   408      1     120.000       560.0
   384   385   536      1      80.407       560.0
   384   385   409      1     120.000       560.0
   408   385   536      1     109.470       560.0
   408   385   409      1     120.000       560.0
   536   385   409      1      80.407       560.0
   359   386   357      1     120.000       560.0
   359   386   387      1     120.000       560.0
   357   386   387      1     120.000       560.0
   409   387   410      1     120.000       560.0
   409   387   386      1     120.000       560.0
   410   387   386      1     120.000       560.0
   361   388   389      1     120.000       560.0
   361   388   359      1     120.000       560.0
   389   388   359      1     120.000       560.0
   388   389   410      1     120.000       560.0
   388   389   411      1     120.000       560.0
   410   389   411      1     120.000       560.0
   361   390   363      1     120.000       560.0
   361   390   391      1     120.000       560.0
   363   390   391      1     120.000       560.0
   390   391   412      1     120.000       560.0
   390   391   411      1     120.000       560.0
   412   391   411      1     120.000       560.0
   535   392   365      1      60.403       560.0
   535   392   363      1     104.297       560.0
   535   392   393      1     104.297       560.0
   365   392   363      1     120.000       560.0
   365   392   393      1     120.000       560.0
   363   392   393      1     120.000       560.0
   413   393   392      1     120.000       560.0
   413   393   412      1     120.000       560.0
   392   393   412      1     120.000       560.0
   395   394   367      1     120.000       560.0
   395   394   365      1     120.000       560.0
   367   394   365      1     120.000       560.0
   414   395   394      1     120.000       560.0
   414   395   413      1     120.000       560.0
   394   395   413      1     120.000       560.0
   496   396   369      1     104.297       560.0
   496   396   397      1     104.297       560.0
   496   396   367      1      60.403       560.0
   369   396   397      1     120.000       560.0
   369   396   367      1     120.000       560.0
   397   396   367      1     120.000       560.0
   414   397   396      1     120.000       560.0
   414   397   415      1     120.000       560.0
   396   397   415      1     120.000       560.0
   371   398   399      1     120.000       560.0
   371   398   369      1     120.000       560.0
   399   398   369      1     120.000       560.0
   527   399   398      1     109.470       560.0
   527   399   415      1      80.407       560.0
   527   399   416      1      80.407       560.0
   398   399   415      1     120.000       560.0
   398   399   416      1     120.000       560.0
   415   399   416      1     120.000       560.0
   401   400   373      1     120.000       560.0
   401   400   371      1     120.000       560.0
   373   400   371      1     120.000       560.0
   417   401   400      1     120.000       560.0
   417   401   416      1     120.000       560.0
   400   401   416      1     120.000       560.0
   375   402   373      1     120.000       560.0
   375   402   403      1     120.000       560.0
   373   402   403      1     120.000       560.0
   417   403   418      1     120.000       560.0
   417   403   402      1     120.000       560.0
   418   403   402      1     120.000       560.0
   377   404   405      1     120.000       560.0
   377   404   375      1     120.000       560.0
   405   404   375      1     120.000       560.0
   418   405   461      1     120.000       320.0
   418   405   404      1     120.000       560.0
   461   405   404      1     120.000       320.0
   462   406   379      1     120.000       320.0
   462   406   381      1     120.000       320.0
   379   406   381      1     120.000       560.0
   383   407   381      1     120.000       560.0
   383   407   463      1     120.000       320.0
   381   407   463      1     120.000       320.0
   383   408   464      1     120.000       320.0
   383   408   385      1     120.000       560.0
   464   408   385      1     120.000       320.0
   465   409   387      1     120.000       320.0
   465   409   385      1     120.000       320.0
   387   409   385      1     120.000       560.0
   387   410   466      1     120.000       320.0
   387   410   389      1     120.000       560.0
   466   410   389      1     120.000       320.0
   391   411   389      1     120.000       560.0
   391   411   467      1     120.000       320.0
   389   411   467      1     120.000       320.0
   393   412   391      1     120.000       560.0
   393   412   468      1     120.000       320.0
   391   412   468      1     120.000       320.0
   469   413   395      1     120.000       320.0
   469   413   393      1     120.000       320.0
   395   413   393      1     120.000       560.0
   470   414   397      1     120.000       320.0
   470   414   395      1     120.000       320.0
   397   414   395      1     120.000       560.0
   399   415   397      1     120.000       560.0
   399   415   471      1     120.000       320.0
   397   415   471      1     120.000       320.0
   399   416   472      1     120.000       320.0
   399   416   401      1     120.000       560.0
   472   416   401      1     120.000       320.0
   403   417   401      1     120.000       560.0
   403   417   473      1     120.000       320.0
   401   417   473      1     120.000       320.0
   405   418   474      1     120.000       320.0
   405   418   403      1     120.000       560.0
   474   418   403      1     120.000       320.0
   253   475   252      1      59.193       560.0
   477   476    43      1     106.000       320.0
   197   478   224      1      59.193       560.0
   240   479   480      1     106.000       320.0
   232   481   203      1      59.193       560.0
   361   482   483      1     106.000       320.0
   144   484   115      1      59.193       560.0
   299   485   486      1     106.000       320.0
   179   487   178      1      59.193       560.0
   489   488   235      1     106.000       320.0
   250   490   251      1      59.193       560.0
   492   491   157      1     106.000       320.0
   353   493   380      1      59.193       560.0
   495   494    59      1     106.000       320.0
   367   496   396      1      59.193       560.0
   290   497   498      1     106.000       320.0
   374   499   375      1      59.193       560.0
   155   500   501      1     106.000       320.0
   147   502   174      1      59.193       560.0
   504   503   348      1     106.000       320.0
   191   505   218      1      59.193       560.0
   507   506   325      1     106.000       320.0
    80   508    53      1      59.193       560.0
   510   509   193      1     106.000       320.0
   286   511   259      1      59.193       560.0
   275   512   513      1     106.000       320.0
   279   514   306      1      59.193       560.0
   313   515   516      1     106.000       320.0
   160   517   161      1      59.193       560.0
    54   518   519      1     106.000       320.0
    54   518   546      1     120.592       320.0
   519   518   546      1      90.119       320.0
    49   520    76      1      59.193       560.0
   522   521    75      1     106.000       320.0
   256   523   229      1      59.193       560.0
   105   524   525      1     106.000       320.0
    44   526    15      1      59.193       560.0
   399   527   528      1     106.000       320.0
   268   529   269      1      59.193       560.0
    22   530   531      1     106.000       320.0
   112   532    83      1      59.193       560.0
   534   533   368      1     106.000       320.0
   365   535   392      1      59.193       560.0
   537   536   385      1     106.000       320.0
   309   538   338      1      59.193       560.0
   540   539   120      1     106.000       320.0
   168   541   141      1      59.193       560.0
   543   542    65      1     106.000       320.0
   123   544   122      1      59.193       560.0
   546   545    56      1     106.000       320.0
   518   546   545      1     135.642       560.0
   200   547   201      1      59.193       560.0
   127   548   549      1     106.000       320.0
   194   550   167      1      59.193       560.0
   552   551   383      1     106.000       320.0

[ dihedrals ]
;   ai    aj    ak    al  funct   phase  kd(kJ/mol)  mult
    16     1    14    15      1     180.0      25.000     2
   419     1    16    17      1     180.0      25.000     2
    18     2    16    17      1     180.0      25.000     2
   420     2    18    19      1     180.0      25.000     2
    20     3    18    19      1     180.0      25.000     2
    18     3    20     4      1     180.0      25.000     2
    22     4    20    21      1     180.0      25.000     2
    20     4    22     5      1     180.0      25.000     2
   423     5    22     4      1     180.0      25.000     2
   423     5    24     6      1     180.0      25.000     2
    26     6    24    25      1     180.0      25.000     2
   424     6    26     7      1     180.0      25.000     2
    28     7    26     6      1     180.0      25.000     2
    26     7    28    29      1     180.0      25.000     2
    30     8    28    29      1     180.0      25.000     2
    28     8    30    31      1     180.0      25.000     2
   427     9    30     8      1     180.0      25.000     2
    30     9    32    10      1     180.0      25.000     2
   428    10    32     9      1     180.0      25.000     2
   428    10    34    35      1     180.0      25.000     2
    36    11    34    35      1     180.0      25.000     2
    34    11    36    12      1     180.0      25.000     2
   430    12    36    11      1     180.0      25.000     2
    36    12    38    13      1     180.0      25.000     2
    40    13    38    39      1     180.0      25.000     2
    38    13    40   433      1     180.0      25.000     2
     1    14    15    42      1     180.0      25.000     2
    14    15    42   435      1     180.0      25.000     2
    42    15    44    17      1     180.0      25.000     2
    42    15   526    44      1     180.0      25.000     2
     1    16    17    44      1     180.0      25.000     2
    16    17    44    15      1     180.0      25.000     2
    16    17    46    47      1     180.0      25.000     2
     2    18    19    48      1     180.0      25.000     2
    48    19    46    47      1     180.0      25.000     2
    46    19    48    49      1     180.0      25.000     2
     4    20    21    48      1     180.0      25.000     2
    50    21    48    49      1     180.0      25.000     2
    48    21    50    51      1     180.0      25.000     2
     5    22    23    52      1     180.0      25.000     2
     5    22   530   531      1     180.0      25.000     2
    52    23    50    51      1     180.0      25.000     2
    22    23    52    53      1     180.0      25.000     2
     6    24    25    54      1     180.0      25.000     2
    24    25    52    23      1     180.0      25.000     2
    24    25    54    27      1     180.0      25.000     2
     7    26    27    56      1     180.0      25.000     2
    56    27    54    25      1     180.0      25.000     2
    26    27    56    29      1     180.0      25.000     2
     8    28    29    58      1     180.0      25.000     2
    28    29    56    57      1     180.0      25.000     2
    28    29    58    59      1     180.0      25.000     2
     8    30    31    60      1     180.0      25.000     2
    60    31    58    29      1     180.0      25.000     2
    30    31    60    33      1     180.0      25.000     2
    10    32    33    62      1     180.0      25.000     2
    32    33    60    31      1     180.0      25.000     2
    32    33    62    35      1     180.0      25.000     2
    10    34    35    64      1     180.0      25.000     2
    64    35    62    33      1     180.0      25.000     2
    62    35    64    65      1     180.0      25.000     2
    11    36    37    64      1     180.0      25.000     2
    66    37    64    65      1     180.0      25.000     2
    64    37    66    39      1     180.0      25.000     2
    13    38    39    66      1     180.0      25.000     2
    68    39    66    37      1     180.0      25.000     2
    66    39    68    41      1     180.0      25.000     2
   433    40    41    68      1     180.0      25.000     2
   434    41    68    39      1     180.0      25.000     2
   435    42    43    72      1     180.0      25.000     2
    72    43    70   437      1     180.0      25.000     2
    70    43    72    73      1     180.0      25.000     2
    72    43   476   477      1     180.0      25.000     2
    17    44    45    74      1     180.0      25.000     2
    17    44   526    15      1     180.0      25.000     2
    44    45    72    73      1     180.0      25.000     2
    44    45    74    47      1     180.0      25.000     2
    19    46    47    76      1     180.0      25.000     2
    76    47    74    45      1     180.0      25.000     2
    46    47    76    49      1     180.0      25.000     2
    19    48    49   520      1     180.0      25.000     2
   520    49    76    47      1     180.0      25.000     2
   520    49    78    51      1     180.0      25.000     2
    48    49   520    76      1     180.0      25.000     2
    23    50    51    80      1     180.0      25.000     2
    50    51    78    49      1     180.0      25.000     2
    50    51    80    53      1     180.0      25.000     2
    23    52    53    80      1     180.0      25.000     2
    82    53    80   508      1     180.0      25.000     2
    80    53    82    55      1     180.0      25.000     2
    82    53   508    80      1     180.0      25.000     2
    27    54    55    82      1     180.0      25.000     2
    27    54   518   519      1     180.0      25.000     2
    84    55    82    53      1     180.0      25.000     2
    82    55    84    85      1     180.0      25.000     2
    29    56    57    84      1     180.0      25.000     2
    29    56   545   546      1     180.0      25.000     2
    56    57    84    55      1     180.0      25.000     2
    84    57    86    87      1     180.0      25.000     2
    29    58    59    88      1     180.0      25.000     2
    58    59    86    57      1     180.0      25.000     2
    58    59    88    89      1     180.0      25.000     2
    58    59   494   495      1     180.0      25.000     2
    33    60    61    88      1     180.0      25.000     2
    60    61    88    89      1     180.0      25.000     2
    60    61    90    91      1     180.0      25.000     2
    33    62    63    90      1     180.0      25.000     2
    62    63    90    91      1     180.0      25.000     2
    62    63    92    65      1     180.0      25.000     2
    35    64    65    92      1     180.0      25.000     2
    94    65    92    63      1     180.0      25.000     2
    92    65    94    67      1     180.0      25.000     2
    92    65   542   543      1     180.0      25.000     2
    37    66    67    96      1     180.0      25.000     2
    96    67    94    65      1     180.0      25.000     2
    66    67    96    69      1     180.0      25.000     2
    39    68    69    96      1     180.0      25.000     2
   436    69    96    67      1     180.0      25.000     2
   437    70    71   100      1     180.0      25.000     2
   100    71    98   439      1     180.0      25.000     2
    70    71   100   101      1     180.0      25.000     2
    43    72    73   100      1     180.0      25.000     2
   102    73   100   101      1     180.0      25.000     2
   100    73   102    75      1     180.0      25.000     2
    45    74    75   104      1     180.0      25.000     2
   104    75   102   103      1     180.0      25.000     2
   521    75   104    77      1     180.0      25.000     2
   104    75   521   522      1     180.0      25.000     2
    47    76    77   106      1     180.0      25.000     2
    47    76   520    49      1     180.0      25.000     2
   106    77   104    75      1     180.0      25.000     2
    76    77   106   107      1     180.0      25.000     2
    49    78    79   106      1     180.0      25.000     2
    78    79   106   107      1     180.0      25.000     2
   106    79   108    81      1     180.0      25.000     2
    53    80    81   108      1     180.0      25.000     2
    81    80   508    53      1     180.0      25.000     2
    80    81   108    79      1     180.0      25.000     2
   108    81   110   111      1     180.0      25.000     2
    53    82    83   110      1     180.0      25.000     2
   532    83   110    81      1     180.0      25.000     2
   110    83   112   532      1     180.0      25.000     2
   110    83   532   112      1     180.0      25.000     2
    55    84    85   112      1     180.0      25.000     2
   114    85   112    83      1     180.0      25.000     2
   112    85   114   115      1     180.0      25.000     2
    57    86    87   114      1     180.0      25.000     2
   116    87   114   115      1     180.0      25.000     2
   114    87   116   117      1     180.0      25.000     2
    61    88    89   118      1     180.0      25.000     2
    88    89   116    87      1     180.0      25.000     2
    88    89   118   119      1     180.0      25.000     2
    61    90    91   120      1     180.0      25.000     2
   120    91   118   119      1     180.0      25.000     2
    90    91   120   539      1     180.0      25.000     2
    65    92    93   122      1     180.0      25.000     2
    92    93   120   539      1     180.0      25.000     2
    92    93   122    95      1     180.0      25.000     2
    67    94    95   124      1     180.0      25.000     2
    94    95   122    93      1     180.0      25.000     2
    94    95   124    97      1     180.0      25.000     2
    69    96    97   438      1     180.0      25.000     2
    96    97   124   125      1     180.0      25.000     2
   439    98    99   128      1     180.0      25.000     2
   128    99   126   441      1     180.0      25.000     2
    98    99   128   101      1     180.0      25.000     2
    73   100   101   130      1     180.0      25.000     2
   130   101   128   129      1     180.0      25.000     2
   100   101   130   103      1     180.0      25.000     2
    75   102   103   130      1     180.0      25.000     2
   132   103   130   101      1     180.0      25.000     2
   130   103   132   133      1     180.0      25.000     2
    77   104   105   134      1     180.0      25.000     2
   134   105   132   133      1     180.0      25.000     2
   524   105   134   135      1     180.0      25.000     2
   134   105   524   525      1     180.0      25.000     2
    77   106   107   134      1     180.0      25.000     2
   106   107   134   135      1     180.0      25.000     2
   106   107   136   109      1     180.0      25.000     2
    79   108   109   138      1     180.0      25.000     2
   138   109   136   137      1     180.0      25.000     2
   108   109   138   111      1     180.0      25.000     2
    81   110   111   140      1     180.0      25.000     2
   110   111   138   109      1     180.0      25.000     2
   110   111   140   141      1     180.0      25.000     2
    83   112   113   140      1     180.0      25.000     2
   113   112   532    83      1     180.0      25.000     2
   142   113   140   141      1     180.0      25.000     2
   140   113   142   115      1     180.0      25.000     2
    85   114   115   144      1     180.0      25.000     2
   144   115   142   113      1     180.0      25.000     2
   484   115   144   145      1     180.0      25.000     2
   114   115   484   144      1     180.0      25.000     2
    87   116   117   146      1     180.0      25.000     2
   116   117   144   145      1     180.0      25.000     2
   116   117   146   147      1     180.0      25.000     2
    91   118   119   146      1     180.0      25.000     2
   118   119   146   147      1     180.0      25.000     2
   146   119   148   121      1     180.0      25.000     2
   539   120   121   148      1     180.0      25.000     2
    93   120   539   540      1     180.0      25.000     2
   120   121   148   119      1     180.0      25.000     2
   148   121   150   151      1     180.0      25.000     2
    93   122   123   544      1     180.0      25.000     2
    93   122   544   123      1     180.0      25.000     2
   544   123   150   151      1     180.0      25.000     2
   544   123   152   153      1     180.0      25.000     2
   152   123   544   122      1     180.0      25.000     2
    97   124   125   152      1     180.0      25.000     2
   124   125   152   153      1     180.0      25.000     2
   441   126   127   156      1     180.0      25.000     2
   156   127   154   443      1     180.0      25.000     2
   548   127   156   157      1     180.0      25.000     2
   156   127   548   549      1     180.0      25.000     2
   101   128   129   156      1     180.0      25.000     2
   158   129   156   157      1     180.0      25.000     2
   156   129   158   159      1     180.0      25.000     2
   103   130   131   158      1     180.0      25.000     2
   130   131   158   159      1     180.0      25.000     2
   158   131   160   161      1     180.0      25.000     2
   105   132   133   162      1     180.0      25.000     2
   162   133   160   161      1     180.0      25.000     2
   160   133   162   163      1     180.0      25.000     2
   107   134   135   162      1     180.0      25.000     2
   134   135   162   163      1     180.0      25.000     2
   162   135   164   165      1     180.0      25.000     2
   109   136   137   164      1     180.0      25.000     2
   166   137   164   165      1     180.0      25.000     2
   164   137   166   167      1     180.0      25.000     2
   111   138   139   166      1     180.0      25.000     2
   138   139   166   137      1     180.0      25.000     2
   166   139   168   141      1     180.0      25.000     2
   111   140   141   168      1     180.0      25.000     2
   140   141   168   139      1     180.0      25.000     2
   140   141   170   171      1     180.0      25.000     2
   140   141   541   168      1     180.0      25.000     2
   113   142   143   172      1     180.0      25.000     2
   172   143   170   171      1     180.0      25.000     2
   142   143   172   173      1     180.0      25.000     2
   115   144   145   172      1     180.0      25.000     2
   145   144   484   115      1     180.0      25.000     2
   174   145   172   143      1     180.0      25.000     2
   172   145   174   147      1     180.0      25.000     2
   119   146   147   502      1     180.0      25.000     2
   146   147   174   175      1     180.0      25.000     2
   146   147   176   149      1     180.0      25.000     2
   146   147   502   174      1     180.0      25.000     2
   121   148   149   176      1     180.0      25.000     2
   148   149   176   147      1     180.0      25.000     2
   148   149   178   151      1     180.0      25.000     2
   123   150   151   178      1     180.0      25.000     2
   150   151   178   179      1     180.0      25.000     2
   178   151   180   153      1     180.0      25.000     2
   123   152   153   442      1     180.0      25.000     2
   152   153   180   151      1     180.0      25.000     2
   443   154   155   182      1     180.0      25.000     2
   154   155   182   183      1     180.0      25.000     2
   182   155   184   185      1     180.0      25.000     2
   182   155   500   501      1     180.0      25.000     2
   129   156   157   491      1     180.0      25.000     2
   491   157   184   155      1     180.0      25.000     2
   491   157   186   187      1     180.0      25.000     2
   186   157   491   492      1     180.0      25.000     2
   131   158   159   188      1     180.0      25.000     2
   158   159   186   187      1     180.0      25.000     2
   158   159   188   161      1     180.0      25.000     2
   131   160   161   188      1     180.0      25.000     2
   131   160   517   161      1     180.0      25.000     2
   190   161   188   159      1     180.0      25.000     2
   188   161   190   163      1     180.0      25.000     2
   188   161   517   160      1     180.0      25.000     2
   135   162   163   192      1     180.0      25.000     2
   162   163   190   161      1     180.0      25.000     2
   162   163   192   193      1     180.0      25.000     2
   137   164   165   192      1     180.0      25.000     2
   194   165   192   163      1     180.0      25.000     2
   192   165   194   550      1     180.0      25.000     2
   137   166   167   196      1     180.0      25.000     2
   196   167   194   550      1     180.0      25.000     2
   166   167   196   169      1     180.0      25.000     2
   196   167   550   194      1     180.0      25.000     2
   139   168   169   198      1     180.0      25.000     2
   139   168   541   141      1     180.0      25.000     2
   198   169   196   167      1     180.0      25.000     2
   168   169   198   199      1     180.0      25.000     2
   143   170   171   200      1     180.0      25.000     2
   200   171   198   199      1     180.0      25.000     2
   198   171   200   201      1     180.0      25.000     2
   143   172   173   202      1     180.0      25.000     2
   202   173   200   201      1     180.0      25.000     2
   172   173   202   203      1     180.0      25.000     2
   147   174   175   202      1     180.0      25.000     2
   175   174   502   147      1     180.0      25.000     2
   204   175   202   203      1     180.0      25.000     2
   202   175   204   177      1     180.0      25.000     2
   149   176   177   204      1     180.0      25.000     2
   206   177   204   175      1     180.0      25.000     2
   204   177   206   179      1     180.0      25.000     2
   151   178   179   208      1     180.0      25.000     2
   151   178   487   179      1     180.0      25.000     2
   208   179   206   177      1     180.0      25.000     2
   487   179   208   181      1     180.0      25.000     2
   208   179   487   178      1     180.0      25.000     2
   153   180   181   208      1     180.0      25.000     2
   180   181   208   209      1     180.0      25.000     2
   155   182   183   210      1     180.0      25.000     2
   182   183   210   447      1     180.0      25.000     2
   210   183   212   185      1     180.0      25.000     2
   155   184   185   214      1     180.0      25.000     2
   214   185   212   183      1     180.0      25.000     2
   184   185   214   215      1     180.0      25.000     2
   157   186   187   216      1     180.0      25.000     2
   216   187   214   215      1     180.0      25.000     2
   186   187   216   217      1     180.0      25.000     2
   159   188   189   218      1     180.0      25.000     2
   188   189   216   217      1     180.0      25.000     2
   188   189   218   505      1     180.0      25.000     2
   163   190   191   505      1     180.0      25.000     2
   505   191   218   189      1     180.0      25.000     2
   505   191   220   221      1     180.0      25.000     2
   190   191   505   218      1     180.0      25.000     2
   163   192   193   222      1     180.0      25.000     2
   222   193   220   221      1     180.0      25.000     2
   192   193   222   195      1     180.0      25.000     2
   222   193   509   510      1     180.0      25.000     2
   550   194   195   222      1     180.0      25.000     2
   165   194   550   167      1     180.0      25.000     2
   194   195   222   193      1     180.0      25.000     2
   222   195   224   225      1     180.0      25.000     2
   167   196   197   226      1     180.0      25.000     2
   196   197   224   195      1     180.0      25.000     2
   196   197   226   227      1     180.0      25.000     2
   196   197   478   224      1     180.0      25.000     2
   171   198   199   226      1     180.0      25.000     2
   198   199   226   227      1     180.0      25.000     2
   198   199   228   229      1     180.0      25.000     2
   547   200   201   230      1     180.0      25.000     2
   173   200   547   201      1     180.0      25.000     2
   547   201   228   199      1     180.0      25.000     2
   547   201   230   231      1     180.0      25.000     2
   230   201   547   200      1     180.0      25.000     2
   175   202   203   232      1     180.0      25.000     2
   232   203   230   201      1     180.0      25.000     2
   230   203   232   233      1     180.0      25.000     2
   230   203   481   232      1     180.0      25.000     2
   177   204   205   232      1     180.0      25.000     2
   204   205   232   203      1     180.0      25.000     2
   204   205   234   207      1     180.0      25.000     2
   179   206   207   236      1     180.0      25.000     2
   236   207   234   205      1     180.0      25.000     2
   206   207   236   237      1     180.0      25.000     2
   181   208   209   446      1     180.0      25.000     2
   446   209   236   207      1     180.0      25.000     2
   183   210   211   240      1     180.0      25.000     2
   240   211   238   449      1     180.0      25.000     2
   238   211   240   479      1     180.0      25.000     2
   183   212   213   240      1     180.0      25.000     2
   212   213   240   479      1     180.0      25.000     2
   240   213   242   215      1     180.0      25.000     2
   185   214   215   244      1     180.0      25.000     2
   214   215   242   213      1     180.0      25.000     2
   214   215   244   245      1     180.0      25.000     2
   187   216   217   246      1     180.0      25.000     2
   246   217   244   215      1     180.0      25.000     2
   244   217   246   247      1     180.0      25.000     2
   189   218   219   246      1     180.0      25.000     2
   189   218   505   191      1     180.0      25.000     2
   218   219   246   247      1     180.0      25.000     2
   218   219   248   249      1     180.0      25.000     2
   191   220   221   250      1     180.0      25.000     2
   250   221   248   249      1     180.0      25.000     2
   248   221   250   251      1     180.0      25.000     2
   193   222   223   252      1     180.0      25.000     2
   252   223   250   251      1     180.0      25.000     2
   250   223   252   475      1     180.0      25.000     2
   195   224   225   252      1     180.0      25.000     2
   195   224   478   197      1     180.0      25.000     2
   254   225   252   475      1     180.0      25.000     2
   252   225   254   227      1     180.0      25.000     2
   197   226   227   256      1     180.0      25.000     2
   256   227   254   225      1     180.0      25.000     2
   226   227   256   257      1     180.0      25.000     2
   199   228   229   523      1     180.0      25.000     2
   523   229   256   227      1     180.0      25.000     2
   523   229   258   231      1     180.0      25.000     2
   258   229   523   256      1     180.0      25.000     2
   201   230   231   258      1     180.0      25.000     2
   230   231   258   229      1     180.0      25.000     2
   258   231   260   261      1     180.0      25.000     2
   203   232   233   262      1     180.0      25.000     2
   233   232   481   203      1     180.0      25.000     2
   232   233   260   231      1     180.0      25.000     2
   232   233   262   235      1     180.0      25.000     2
   207   234   235   262      1     180.0      25.000     2
   234   235   262   233      1     180.0      25.000     2
   234   235   264   237      1     180.0      25.000     2
   234   235   488   489      1     180.0      25.000     2
   207   236   237   448      1     180.0      25.000     2
   448   237   264   235      1     180.0      25.000     2
   449   238   239   268      1     180.0      25.000     2
   268   239   266   451      1     180.0      25.000     2
   238   239   268   241      1     180.0      25.000     2
   479   240   241   268      1     180.0      25.000     2
   241   240   479   480      1     180.0      25.000     2
   270   241   268   529      1     180.0      25.000     2
   268   241   270   243      1     180.0      25.000     2
   215   242   243   272      1     180.0      25.000     2
   242   243   270   241      1     180.0      25.000     2
   242   243   272   273      1     180.0      25.000     2
   215   244   245   274      1     180.0      25.000     2
   274   245   272   273      1     180.0      25.000     2
   244   245   274   275      1     180.0      25.000     2
   219   246   247   276      1     180.0      25.000     2
   246   247   274   275      1     180.0      25.000     2
   246   247   276   277      1     180.0      25.000     2
   219   248   249   278      1     180.0      25.000     2
   278   249   276   277      1     180.0      25.000     2
   248   249   278   251      1     180.0      25.000     2
   490   250   251   278      1     180.0      25.000     2
   223   250   490   251      1     180.0      25.000     2
   280   251   278   279      1     180.0      25.000     2
   278   251   280   281      1     180.0      25.000     2
   278   251   490   250      1     180.0      25.000     2
   475   252   253   282      1     180.0      25.000     2
   223   252   475   253      1     180.0      25.000     2
   475   253   280   281      1     180.0      25.000     2
   475   253   282   283      1     180.0      25.000     2
   282   253   475   252      1     180.0      25.000     2
   225   254   255   284      1     180.0      25.000     2
   254   255   282   283      1     180.0      25.000     2
   254   255   284   285      1     180.0      25.000     2
   227   256   257   284      1     180.0      25.000     2
   227   256   523   229      1     180.0      25.000     2
   286   257   284   285      1     180.0      25.000     2
   284   257   286   511      1     180.0      25.000     2
   229   258   259   511      1     180.0      25.000     2
   258   259   286   511      1     180.0      25.000     2
   258   259   288   289      1     180.0      25.000     2
   258   259   511   286      1     180.0      25.000     2
   231   260   261   290      1     180.0      25.000     2
   290   261   288   289      1     180.0      25.000     2
   288   261   290   263      1     180.0      25.000     2
   235   262   263   292      1     180.0      25.000     2
   262   263   290   497      1     180.0      25.000     2
   262   263   292   293      1     180.0      25.000     2
   235   264   265   450      1     180.0      25.000     2
   264   265   292   293      1     180.0      25.000     2
   239   266   267   294      1     180.0      25.000     2
   266   267   294   453      1     180.0      25.000     2
   294   267   296   297      1     180.0      25.000     2
   241   268   269   529      1     180.0      25.000     2
   241   268   529   269      1     180.0      25.000     2
   529   269   296   267      1     180.0      25.000     2
   529   269   298   299      1     180.0      25.000     2
   298   269   529   268      1     180.0      25.000     2
   243   270   271   298      1     180.0      25.000     2
   270   271   298   299      1     180.0      25.000     2
   298   271   300   301      1     180.0      25.000     2
   243   272   273   302      1     180.0      25.000     2
   302   273   300   301      1     180.0      25.000     2
   300   273   302   303      1     180.0      25.000     2
   245   274   275   304      1     180.0      25.000     2
   274   275   302   303      1     180.0      25.000     2
   274   275   304   277      1     180.0      25.000     2
   274   275   512   513      1     180.0      25.000     2
   247   276   277   306      1     180.0      25.000     2
   306   277   304   275      1     180.0      25.000     2
   304   277   306   307      1     180.0      25.000     2
   251   278   279   308      1     180.0      25.000     2
   278   279   306   277      1     180.0      25.000     2
   278   279   308   309      1     180.0      25.000     2
   278   279   514   306      1     180.0      25.000     2
   251   280   281   310      1     180.0      25.000     2
   310   281   308   309      1     180.0      25.000     2
   280   281   310   283      1     180.0      25.000     2
   253   282   283   310      1     180.0      25.000     2
   282   283   310   281      1     180.0      25.000     2
   310   283   312   285      1     180.0      25.000     2
   255   284   285   314      1     180.0      25.000     2
   284   285   312   283      1     180.0      25.000     2
   284   285   314   315      1     180.0      25.000     2
   511   286   287   314      1     180.0      25.000     2
   257   286   511   259      1     180.0      25.000     2
   316   287   314   315      1     180.0      25.000     2
   314   287   316   289      1     180.0      25.000     2
   259   288   289   318      1     180.0      25.000     2
   288   289   316   317      1     180.0      25.000     2
   288   289   318   319      1     180.0      25.000     2
   263   290   291   318      1     180.0      25.000     2
   263   290   497   498      1     180.0      25.000     2
   290   291   318   319      1     180.0      25.000     2
   290   291   320   293      1     180.0      25.000     2
   263   292   293   320      1     180.0      25.000     2
   292   293   320   291      1     180.0      25.000     2
   267   294   295   322      1     180.0      25.000     2
   294   295   322   323      1     180.0      25.000     2
   322   295   324   297      1     180.0      25.000     2
   267   296   297   324      1     180.0      25.000     2
   326   297   324   295      1     180.0      25.000     2
   324   297   326   327      1     180.0      25.000     2
   269   298   299   328      1     180.0      25.000     2
   328   299   326   327      1     180.0      25.000     2
   485   299   328   301      1     180.0      25.000     2
   328   299   485   486      1     180.0      25.000     2
   271   300   301   328      1     180.0      25.000     2
   300   301   328   299      1     180.0      25.000     2
   300   301   330   303      1     180.0      25.000     2
   273   302   303   332      1     180.0      25.000     2
   302   303   330   301      1     180.0      25.000     2
   302   303   332   333      1     180.0      25.000     2
   275   304   305   332      1     180.0      25.000     2
   334   305   332   333      1     180.0      25.000     2
   332   305   334   335      1     180.0      25.000     2
   277   306   307   336      1     180.0      25.000     2
   277   306   514   279      1     180.0      25.000     2
   336   307   334   335      1     180.0      25.000     2
   306   307   336   337      1     180.0      25.000     2
   281   308   309   336      1     180.0      25.000     2
   338   309   336   337      1     180.0      25.000     2
   336   309   338   311      1     180.0      25.000     2
   336   309   538   338      1     180.0      25.000     2
   281   310   311   340      1     180.0      25.000     2
   310   311   338   339      1     180.0      25.000     2
   310   311   340   313      1     180.0      25.000     2
   285   312   313   342      1     180.0      25.000     2
   342   313   340   311      1     180.0      25.000     2
   312   313   342   343      1     180.0      25.000     2
   342   313   515   516      1     180.0      25.000     2
   285   314   315   342      1     180.0      25.000     2
   344   315   342   313      1     180.0      25.000     2
   342   315   344   345      1     180.0      25.000     2
   289   316   317   344      1     180.0      25.000     2
   316   317   344   345      1     180.0      25.000     2
   316   317   346   347      1     180.0      25.000     2
   289   318   319   346      1     180.0      25.000     2
   318   319   346   347      1     180.0      25.000     2
   318   319   348   321      1     180.0      25.000     2
   291   320   321   454      1     180.0      25.000     2
   454   321   348   319      1     180.0      25.000     2
   295   322   323   350      1     180.0      25.000     2
   352   323   350   351      1     180.0      25.000     2
   350   323   352   353      1     180.0      25.000     2
   297   324   325   354      1     180.0      25.000     2
   354   325   352   353      1     180.0      25.000     2
   324   325   354   327      1     180.0      25.000     2
   354   325   506   507      1     180.0      25.000     2
   299   326   327   356      1     180.0      25.000     2
   356   327   354   325      1     180.0      25.000     2
   326   327   356   329      1     180.0      25.000     2
   301   328   329   356      1     180.0      25.000     2
   358   329   356   327      1     180.0      25.000     2
   356   329   358   359      1     180.0      25.000     2
   303   330   331   358      1     180.0      25.000     2
   360   331   358   359      1     180.0      25.000     2
   358   331   360   333      1     180.0      25.000     2
   305   332   333   360      1     180.0      25.000     2
   332   333   360   331      1     180.0      25.000     2
   332   333   362   363      1     180.0      25.000     2
   307   334   335   364      1     180.0      25.000     2
   364   335   362   333      1     180.0      25.000     2
   334   335   364   337      1     180.0      25.000     2
   307   336   337   366      1     180.0      25.000     2
   366   337   364   365      1     180.0      25.000     2
   336   337   366   367      1     180.0      25.000     2
   311   338   339   366      1     180.0      25.000     2
   311   338   538   309      1     180.0      25.000     2
   338   339   366   367      1     180.0      25.000     2
   338   339   368   341      1     180.0      25.000     2
   313   340   341   370      1     180.0      25.000     2
   340   341   368   339      1     180.0      25.000     2
   340   341   370   371      1     180.0      25.000     2
   313   342   343   370      1     180.0      25.000     2
   342   343   370   371      1     180.0      25.000     2
   370   343   372   373      1     180.0      25.000     2
   315   344   345   372      1     180.0      25.000     2
   344   345   372   373      1     180.0      25.000     2
   344   345   374   499      1     180.0      25.000     2
   319   346   347   376      1     180.0      25.000     2
   346   347   374   499      1     180.0      25.000     2
   346   347   376   377      1     180.0      25.000     2
   321   348   349   376      1     180.0      25.000     2
   321   348   503   504      1     180.0      25.000     2
   456   349   376   377      1     180.0      25.000     2
   323   350   351   380      1     180.0      25.000     2
   380   351   378   379      1     180.0      25.000     2
   350   351   380   353      1     180.0      25.000     2
   323   352   353   380      1     180.0      25.000     2
   352   353   380   493      1     180.0      25.000     2
   352   353   382   355      1     180.0      25.000     2
   352   353   493   380      1     180.0      25.000     2
   327   354   355   382      1     180.0      25.000     2
   354   355   382   353      1     180.0      25.000     2
   354   355   384   385      1     180.0      25.000     2
   329   356   357   384      1     180.0      25.000     2
   386   357   384   355      1     180.0      25.000     2
   384   357   386   359      1     180.0      25.000     2
   329   358   359   386      1     180.0      25.000     2
   358   359   386   357      1     180.0      25.000     2
   358   359   388   361      1     180.0      25.000     2
   331   360   361   390      1     180.0      25.000     2
   390   361   388   389      1     180.0      25.000     2
   360   361   390   363      1     180.0      25.000     2
   390   361   482   483      1     180.0      25.000     2
   333   362   363   390      1     180.0      25.000     2
   362   363   390   361      1     180.0      25.000     2
   362   363   392   535      1     180.0      25.000     2
   337   364   365   392      1     180.0      25.000     2
   394   365   392   535      1     180.0      25.000     2
   392   365   394   395      1     180.0      25.000     2
   394   365   535   392      1     180.0      25.000     2
   337   366   367   496      1     180.0      25.000     2
   496   367   394   395      1     180.0      25.000     2
   496   367   396   369      1     180.0      25.000     2
   394   367   496   396      1     180.0      25.000     2
   341   368   369   398      1     180.0      25.000     2
   341   368   533   534      1     180.0      25.000     2
   368   369   396   496      1     180.0      25.000     2
   368   369   398   371      1     180.0      25.000     2
   341   370   371   398      1     180.0      25.000     2
   370   371   398   399      1     180.0      25.000     2
   398   371   400   401      1     180.0      25.000     2
   345   372   373   402      1     180.0      25.000     2
   402   373   400   401      1     180.0      25.000     2
   400   373   402   375      1     180.0      25.000     2
   499   374   375   404      1     180.0      25.000     2
   345   374   499   375      1     180.0      25.000     2
   404   375   402   373      1     180.0      25.000     2
   402   375   404   377      1     180.0      25.000     2
   404   375   499   374      1     180.0      25.000     2
   349   376   377   404      1     180.0      25.000     2
   376   377   404   405      1     180.0      25.000     2
   459   378   379   406      1     180.0      25.000     2
   378   379   406   462      1     180.0      25.000     2
   353   380   381   406      1     180.0      25.000     2
   351   380   493   353      1     180.0      25.000     2
   380   381   406   462      1     180.0      25.000     2
   406   381   407   383      1     180.0      25.000     2
   353   382   383   407      1     180.0      25.000     2
   382   383   407   381      1     180.0      25.000     2
   382   383   408   464      1     180.0      25.000     2
   382   383   551   552      1     180.0      25.000     2
   355   384   385   408      1     180.0      25.000     2
   384   385   408   383      1     180.0      25.000     2
   384   385   409   465      1     180.0      25.000     2
   384   385   536   537      1     180.0      25.000     2
   359   386   387   409      1     180.0      25.000     2
   410   387   409   465      1     180.0      25.000     2
   409   387   410   466      1     180.0      25.000     2
   361   388   389   410      1     180.0      25.000     2
   388   389   410   387      1     180.0      25.000     2
   388   389   411   391      1     180.0      25.000     2
   361   390   391   412      1     180.0      25.000     2
   390   391   411   389      1     180.0      25.000     2
   390   391   412   393      1     180.0      25.000     2
   535   392   393   413      1     180.0      25.000     2
   363   392   535   365      1     180.0      25.000     2
   413   393   412   391      1     180.0      25.000     2
   392   393   413   469      1     180.0      25.000     2
   367   394   395   414      1     180.0      25.000     2
   414   395   413   469      1     180.0      25.000     2
   394   395   414   470      1     180.0      25.000     2
   496   396   397   414      1     180.0      25.000     2
   369   396   496   367      1     180.0      25.000     2
   396   397   414   470      1     180.0      25.000     2
   414   397   415   399      1     180.0      25.000     2
   371   398   399   527      1     180.0      25.000     2
   527   399   415   397      1     180.0      25.000     2
   527   399   416   472      1     180.0      25.000     2
   398   399   527   528      1     180.0      25.000     2
   373   400   401   417      1     180.0      25.000     2
   417   401   416   399      1     180.0      25.000     2
   400   401   417   403      1     180.0      25.000     2
   375   402   403   417      1     180.0      25.000     2
   418   403   417   401      1     180.0      25.000     2
   417   403   418   405      1     180.0      25.000     2
   377   404   405   418      1     180.0      25.000     2
   461   405   418   474      1     180.0      25.000     2
    54   518   546   545      1     180.0      25.000     2
    56   545   546   518      1     180.0      25.000     2

